
                                 *****************
                                 * O   R   C   A *
                                 *****************

                                            #,                                       
                                            ###                                      
                                            ####                                     
                                            #####                                    
                                            ######                                   
                                           ########,                                 
                                     ,,################,,,,,                         
                               ,,#################################,,                 
                          ,,##########################################,,             
                       ,#########################################, ''#####,          
                    ,#############################################,,   '####,        
                  ,##################################################,,,,####,       
                ,###########''''           ''''###############################       
              ,#####''   ,,,,##########,,,,          '''####'''          '####       
            ,##' ,,,,###########################,,,                        '##       
           ' ,,###''''                  '''############,,,                           
         ,,##''                                '''############,,,,        ,,,,,,###''
      ,#''                                            '''#######################'''  
     '                                                          ''''####''''         
             ,#######,   #######,   ,#######,      ##                                
            ,#'     '#,  ##    ##  ,#'     '#,    #''#        ######   ,####,        
            ##       ##  ##   ,#'  ##            #'  '#       #        #'  '#        
            ##       ##  #######   ##           ,######,      #####,   #    #        
            '#,     ,#'  ##    ##  '#,     ,#' ,#      #,         ##   #,  ,#        
             '#######'   ##     ##  '#######'  #'      '#     #####' # '####'        



                  #######################################################
                  #                        -***-                        #
                  #          Department of theory and spectroscopy      #
                  #    Directorship and core code : Frank Neese         #
                  #        Max Planck Institute fuer Kohlenforschung    #
                  #                Kaiser Wilhelm Platz 1               #
                  #                 D-45470 Muelheim/Ruhr               #
                  #                      Germany                        #
                  #                                                     #
                  #                  All rights reserved                #
                  #                        -***-                        #
                  #######################################################


                         Program Version 5.0.3 -  RELEASE  -


 With contributions from (in alphabetic order):
   Daniel Aravena         : Magnetic Suceptibility
   Michael Atanasov       : Ab Initio Ligand Field Theory (pilot matlab implementation)
   Alexander A. Auer      : GIAO ZORA, VPT2 properties, NMR spectrum
   Ute Becker             : Parallelization
   Giovanni Bistoni       : ED, misc. LED, open-shell LED, HFLD
   Martin Brehm           : Molecular dynamics
   Dmytro Bykov           : SCF Hessian
   Vijay G. Chilkuri      : MRCI spin determinant printing, contributions to CSF-ICE
   Dipayan Datta          : RHF DLPNO-CCSD density
   Achintya Kumar Dutta   : EOM-CC, STEOM-CC
   Dmitry Ganyushin       : Spin-Orbit,Spin-Spin,Magnetic field MRCI
   Miquel Garcia          : C-PCM and meta-GGA Hessian, CC/C-PCM, Gaussian charge scheme
   Yang Guo               : DLPNO-NEVPT2, F12-NEVPT2, CIM, IAO-localization
   Andreas Hansen         : Spin unrestricted coupled pair/coupled cluster methods
   Benjamin Helmich-Paris : MC-RPA, TRAH-SCF, COSX integrals
   Lee Huntington         : MR-EOM, pCC
   Robert Izsak           : Overlap fitted RIJCOSX, COSX-SCS-MP3, EOM
   Marcus Kettner         : VPT2
   Christian Kollmar      : KDIIS, OOCD, Brueckner-CCSD(T), CCSD density, CASPT2, CASPT2-K
   Simone Kossmann        : Meta GGA functionals, TD-DFT gradient, OOMP2, MP2 Hessian
   Martin Krupicka        : Initial AUTO-CI
   Lucas Lang             : DCDCAS
   Marvin Lechner         : AUTO-CI (C++ implementation), FIC-MRCC
   Dagmar Lenk            : GEPOL surface, SMD
   Dimitrios Liakos       : Extrapolation schemes; Compound Job, initial MDCI parallelization
   Dimitrios Manganas     : Further ROCIS development; embedding schemes
   Dimitrios Pantazis     : SARC Basis sets
   Anastasios Papadopoulos: AUTO-CI, single reference methods and gradients
   Taras Petrenko         : DFT Hessian,TD-DFT gradient, ASA, ECA, R-Raman, ABS, FL, XAS/XES, NRVS
   Peter Pinski           : DLPNO-MP2, DLPNO-MP2 Gradient
   Christoph Reimann      : Effective Core Potentials
   Marius Retegan         : Local ZFS, SOC
   Christoph Riplinger    : Optimizer, TS searches, QM/MM, DLPNO-CCSD(T), (RO)-DLPNO pert. Triples
   Tobias Risthaus        : Range-separated hybrids, TD-DFT gradient, RPA, STAB
   Michael Roemelt        : Original ROCIS implementation
   Masaaki Saitow         : Open-shell DLPNO-CCSD energy and density
   Barbara Sandhoefer     : DKH picture change effects
   Avijit Sen             : IP-ROCIS
   Kantharuban Sivalingam : CASSCF convergence, NEVPT2, FIC-MRCI
   Bernardo de Souza      : ESD, SOC TD-DFT
   Georgi Stoychev        : AutoAux, RI-MP2 NMR, DLPNO-MP2 response
   Willem Van den Heuvel  : Paramagnetic NMR
   Boris Wezisla          : Elementary symmetry handling
   Frank Wennmohs         : Technical directorship


 We gratefully acknowledge several colleagues who have allowed us to
 interface, adapt or use parts of their codes:
   Stefan Grimme, W. Hujo, H. Kruse, P. Pracht,  : VdW corrections, initial TS optimization,
                  C. Bannwarth, S. Ehlert          DFT functionals, gCP, sTDA/sTD-DF
   Ed Valeev, F. Pavosevic, A. Kumar             : LibInt (2-el integral package), F12 methods
   Garnet Chan, S. Sharma, J. Yang, R. Olivares  : DMRG
   Ulf Ekstrom                                   : XCFun DFT Library
   Mihaly Kallay                                 : mrcc  (arbitrary order and MRCC methods)
   Jiri Pittner, Ondrej Demel                    : Mk-CCSD
   Frank Weinhold                                : gennbo (NPA and NBO analysis)
   Christopher J. Cramer and Donald G. Truhlar   : smd solvation model
   Lars Goerigk                                  : TD-DFT with DH, B97 family of functionals
   V. Asgeirsson, H. Jonsson                     : NEB implementation
   FAccTs GmbH                                   : IRC, NEB, NEB-TS, DLPNO-Multilevel, CI-OPT
                                                   MM, QMMM, 2- and 3-layer-ONIOM, Crystal-QMMM,
                                                   LR-CPCM, SF, NACMEs, symmetry and pop. for TD-DFT,
                                                   nearIR, NL-DFT gradient (VV10), updates on ESD,
                                                   ML-optimized integration grids
   S Lehtola, MJT Oliveira, MAL Marques          : LibXC Library
   Liviu Ungur et al                             : ANISO software


 Your calculation uses the libint2 library for the computation of 2-el integrals
 For citations please refer to: http://libint.valeyev.net

 Your ORCA version has been built with support for libXC version: 5.1.0
 For citations please refer to: https://tddft.org/programs/libxc/

 This ORCA versions uses:
   CBLAS   interface :  Fast vector & matrix operations
   LAPACKE interface :  Fast linear algebra routines
   SCALAPACK package :  Parallel linear algebra routines
   Shared memory     :  Shared parallel matrices
   BLAS/LAPACK       :  OpenBLAS 0.3.15  USE64BITINT DYNAMIC_ARCH NO_AFFINITY Haswell SINGLE_THREADED
        Core in use  :  Haswell
   Copyright (c) 2011-2014, The OpenBLAS Project


Your calculation utilizes the semiempirical GFN2-xTB method
Please cite in your paper:
C. Bannwarth, Ehlert S., S. Grimme,  J. Chem. Theory Comput., 15, (2019), 1652.
   

================================================================================

================================================================================
                                        WARNINGS
                       Please study these warnings very carefully!
================================================================================


WARNING: Geometry Optimization
  ===> : Switching off AutoStart
         For restart on a previous wavefunction, please use MOREAD

WARNING: Found dipole moment calculation with XTB calculation
  ===> : Switching off dipole moment calculation


WARNING: TRAH-SCF for XTB is not implemented!
  ===> : Turning TRAH off!

================================================================================
                                       INPUT FILE
================================================================================
NAME = /tmp/C00005.inp
|  1> ! XTB2 opt numfreq
|  2> * xyz 0 1
|  3> N 7.912840 -3.916082 1.344804
|  4> C 7.481964 -3.922595 .049523
|  5> O 7.806012 -4.821152 -.709309
|  6> C 6.635573 -2.796241 -.389884
|  7> C 6.447770 -1.669016 .318603
|  8> N 5.661504 -.617639 -.104135
|  9> C 5.414744 .481336 .787025
| 10> O 4.246186 .267528 1.575163
| 11> C 3.209193 1.169645 1.247266
| 12> C 1.961675 .365932 .859725
| 13> O .848774 1.210675 .604927
| 14> P .627742 1.938263 -.792711
| 15> O 1.003180 3.359566 -.784787
| 16> O 1.199624 1.039630 -1.923429
| 17> O -.947653 1.780146 -.983762
| 18> P -2.107086 2.664704 -.290922
| 19> O -3.350296 2.325375 -.979335
| 20> O -1.581256 4.126781 -.402054
| 21> O -2.023449 2.332970 1.259303
| 22> C -3.007375 1.572286 1.967366
| 23> C -2.638669 .075686 2.134122
| 24> O -3.817127 -.711640 2.274240
| 25> C -4.130485 -1.357735 1.054986
| 26> N -5.516209 -1.206849 .740208
| 27> C -6.437723 -2.206972 .552800
| 28> N -7.621363 -1.785591 .245944
| 29> C -7.516240 -.416074 .225894
| 30> C -8.423588 .627501 -.035041
| 31> N -9.713190 .414775 -.336872
| 32> N -7.975926 1.885672 .027155
| 33> C -6.711339 2.106625 .336294
| 34> N -5.768200 1.221834 .607413
| 35> C -6.200137 -.037190 .535982
| 36> C -3.200979 -.706554 .015727
| 37> O -2.963697 -1.511265 -1.113670
| 38> P -1.984199 -.886423 -2.225922
| 39> O -.567715 -.840022 -1.776668
| 40> O -2.633215 .411528 -2.792077
| 41> O -2.191738 -1.890871 -3.414314
| 42> C -1.957332 -.457852 .879789
| 43> O -1.259158 -1.644502 1.143595
| 44> C 3.718039 2.103048 .121427
| 45> O 3.487225 3.454576 .389966
| 46> C 5.243803 1.841016 .083232
| 47> O 5.950680 2.820471 .782245
| 48> C 4.846781 -.843692 -1.216092
| 49> C 4.975115 -1.917946 -1.990541
| 50> C 6.020188 -2.976294 -1.761427
| 51> H 8.436928 -4.720025 1.649667
| 52> H 7.513410 -3.319376 2.046364
| 53> H 6.923846 -1.496192 1.273800
| 54> H 6.265839 .552090 1.477019
| 55> H 2.981103 1.783004 2.131091
| 56> H 2.181723 -.257819 -.011886
| 57> H 1.669195 -.275611 1.694603
| 58> H .596632 .250290 -2.031219
| 59> H -.608082 4.172573 -.466375
| 60> H -3.086162 2.043277 2.949198
| 61> H -3.978890 1.637317 1.456187
| 62> H -2.028534 -.094797 3.024482
| 63> H -3.918806 -2.435182 1.135757
| 64> H -6.173278 -3.241520 .651967
| 65> H -10.054856 -.526660 -.402040
| 66> H -10.306523 1.202009 -.527517
| 67> H -6.405042 3.142984 .371525
| 68> H -3.645719 .245706 -.284026
| 69> H -2.926486 1.130212 -2.194001
| 70> H -1.457575 -2.497204 -3.501146
| 71> H -1.284382 .271878 .448930
| 72> H -.802898 -1.895044 .328930
| 73> H 3.262816 1.819737 -.835401
| 74> H 2.620941 3.696554 .020008
| 75> H 5.614750 1.786080 -.950301
| 76> H 5.367672 3.593291 .852311
| 77> H 4.101299 -.082060 -1.405486
| 78> H 4.317259 -2.044759 -2.835769
| 79> H 5.585214 -3.988987 -1.843246
| 80> H 6.811898 -2.920997 -2.534922
| 81> *
| 82> 
| 83>                          ****END OF INPUT****
================================================================================

                       *****************************
                       * Geometry Optimization Run *
                       *****************************

Geometry optimization settings:
Update method            Update   .... BFGS
Choice of coordinates    CoordSys .... Z-matrix Internals
Initial Hessian          InHess   .... Almoef's Model

Convergence Tolerances:
Energy Change            TolE     ....  5.0000e-06 Eh
Max. Gradient            TolMAXG  ....  3.0000e-04 Eh/bohr
RMS Gradient             TolRMSG  ....  1.0000e-04 Eh/bohr
Max. Displacement        TolMAXD  ....  4.0000e-03 bohr
RMS Displacement         TolRMSD  ....  2.0000e-03 bohr
Strict Convergence                ....  False
------------------------------------------------------------------------------
                        ORCA OPTIMIZATION COORDINATE SETUP
------------------------------------------------------------------------------

The optimization will be done in new redundant internal coordinates
Making redundant internal coordinates   ...  (new redundants) done
Evaluating the initial hessian          ...  (Almloef) done
Evaluating the coordinates              ...  done
Calculating the B-matrix                .... done
Calculating the G-matrix                .... done
Diagonalizing the G-matrix              .... done
Small eigenvalue found = 5.350e-04
Small eigenvalue found = 8.163e-04
Small eigenvalue found = 2.123e-03
Small eigenvalue found = 4.975e-03
Small eigenvalue found = 5.807e-03
Small eigenvalue found = 8.310e-03
Small eigenvalue found = 9.552e-03
Small eigenvalue found = 1.070e-02
Small eigenvalue found = 1.192e-02
Small eigenvalue found = 1.816e-02
Small eigenvalue found = 2.048e-02
Small eigenvalue found = 2.289e-02
Small eigenvalue found = 2.589e-02
The first mode is                       ....  209
The number of degrees of freedom        ....  228

    -----------------------------------------------------------------
                    Redundant Internal Coordinates


    -----------------------------------------------------------------
         Definition                    Initial Value    Approx d2E/dq
    -----------------------------------------------------------------
      1. B(C   1,N   0)                  1.3651         0.613240   
      2. B(O   2,C   1)                  1.2199         1.045215   
      3. B(C   3,C   1)                  1.4758         0.455798   
      4. B(C   4,C   3)                  1.3446         0.738285   
      5. B(N   5,C   4)                  1.3792         0.582150   
      6. B(C   6,N   5)                  1.4362         0.472164   
      7. B(O   7,C   6)                  1.4256         0.490953   
      8. B(C   8,O   7)                  1.4130         0.514179   
      9. B(C   9,C   8)                  1.5338         0.368439   
     10. B(O  10,C   9)                  1.4202         0.500773   
     11. B(P  11,O  10)                  1.5911         0.898485   
     12. B(O  12,P  11)                  1.4701         1.401573   
     13. B(O  13,P  11)                  1.5534         1.031914   
     14. B(O  14,P  11)                  1.5948         0.886405   
     15. B(P  15,O  14)                  1.6145         0.824371   
     16. B(O  16,P  15)                  1.4610         1.448889   
     17. B(O  17,P  15)                  1.5577         1.015711   
     18. B(O  18,P  15)                  1.5875         0.910392   
     19. B(C  19,O  18)                  1.4311         0.481140   
     20. B(C  20,C  19)                  1.5503         0.346674   
     21. B(O  21,C  20)                  1.4242         0.493570   
     22. B(C  22,O  21)                  1.4150         0.510501   
     23. B(N  23,C  22)                  1.4290         0.484875   
     24. B(C  24,N  23)                  1.3728         0.596116   
     25. B(N  25,C  24)                  1.2933         0.798163   
     26. B(C  26,N  25)                  1.3737         0.594147   
     27. B(C  27,C  26)                  1.4073         0.586383   
     28. B(N  28,C  27)                  1.3414         0.668913   
     29. B(N  29,C  27)                  1.3369         0.680167   
     30. B(C  30,N  29)                  1.3204         0.722521   
     31. B(N  31,C  30)                  1.3213         0.720210   
     32. B(C  32,N  31)                  1.3330         0.690018   
     33. B(C  32,C  26)                  1.4042         0.592995   
     34. B(C  32,N  23)                  1.3702         0.601721   
     35. B(C  33,C  22)                  1.5389         0.361617   
     36. B(O  34,C  33)                  1.4069         0.525889   
     37. B(P  35,O  34)                  1.6084         0.843193   
     38. B(O  36,P  35)                  1.4867         1.318317   
     39. B(O  37,P  35)                  1.5577         1.015814   
     40. B(O  38,P  35)                  1.5698         0.971660   
     41. B(C  39,C  33)                  1.5346         0.367264   
     42. B(C  39,C  20)                  1.5239         0.382058   
     43. B(O  40,C  39)                  1.4018         0.535762   
     44. B(C  41,C   8)                  1.5484         0.349101   
     45. B(O  42,C  41)                  1.3971         0.545098   
     46. B(C  43,C  41)                  1.5486         0.348937   
     47. B(C  43,C   6)                  1.5405         0.359381   
     48. B(O  44,C  43)                  1.3956         0.548255   
     49. B(C  45,N   5)                  1.3969         0.545596   
     50. B(C  46,C  45)                  1.3305         0.777406   
     51. B(C  47,C  46)                  1.5049         0.409636   
     52. B(C  47,C   3)                  1.5140         0.396166   
     53. B(H  48,N   0)                  1.0069         0.437595   
     54. B(H  49,N   0)                  1.0039         0.442535   
     55. B(H  50,C   4)                  1.0812         0.371979   
     56. B(H  51,C   6)                  1.0979         0.349755   
     57. B(H  52,C   8)                  1.0997         0.347470   
     58. B(H  53,C   9)                  1.0942         0.354635   
     59. B(H  54,C   9)                  1.0928         0.356456   
     60. B(H  55,O  13)                  0.9991         0.450324   
     61. B(H  55,O  36)                  1.6153         0.046820   
     62. B(H  56,O  17)                  0.9764         0.489606   
     63. B(H  57,C  19)                  1.0918         0.357723   
     64. B(H  58,C  19)                  1.0997         0.347474   
     65. B(H  59,C  20)                  1.0927         0.356500   
     66. B(H  60,C  22)                  1.1010         0.345825   
     67. B(H  61,C  24)                  1.0724         0.384143   
     68. B(H  62,N  28)                  1.0036         0.442946   
     69. B(H  63,N  28)                  1.0041         0.442262   
     70. B(H  64,O  16)                  3.4387         0.000058   
     71. B(H  64,C  30)                  1.0812         0.371865   
     72. B(H  65,C  33)                  1.0929         0.356276   
     73. B(H  66,O  37)                  0.9799         0.483296   
     74. B(H  67,O  38)                  0.9561         0.527411   
     75. B(H  68,C  39)                  1.0821         0.370662   
     76. B(H  69,H  54)                  3.2556         0.000024   
     77. B(H  69,O  40)                  0.9668         0.507204   
     78. B(H  70,C  41)                  1.0968         0.351191   
     79. B(H  71,O  42)                  0.9726         0.496513   
     80. B(H  72,C  43)                  1.0995         0.347802   
     81. B(H  73,O  44)                  0.9706         0.500104   
     82. B(H  74,C  45)                  1.0824         0.370228   
     83. B(H  75,H  55)                  4.4450         0.000000   
     84. B(H  75,C  46)                  1.0785         0.375572   
     85. B(H  76,C  47)                  1.1052         0.340557   
     86. B(H  77,C  47)                  1.1082         0.336783   
     87. A(C   1,N   0,H  48)          116.5996         0.358685   
     88. A(H  48,N   0,H  49)          118.0389         0.304897   
     89. A(C   1,N   0,H  49)          122.7079         0.359371   
     90. A(N   0,C   1,O   2)          120.6567         0.470052   
     91. A(N   0,C   1,C   3)          117.3797         0.407415   
     92. A(O   2,C   1,C   3)          121.9566         0.448259   
     93. A(C   4,C   3,C  47)          121.3503         0.413369   
     94. A(C   1,C   3,C   4)          124.2667         0.423829   
     95. A(C   1,C   3,C  47)          114.3339         0.379826   
     96. A(C   3,C   4,H  50)          122.5503         0.365572   
     97. A(C   3,C   4,N   5)          123.8615         0.439983   
     98. A(N   5,C   4,H  50)          113.5757         0.348935   
     99. A(C   6,N   5,C  45)          121.1668         0.399016   
    100. A(C   4,N   5,C  45)          116.9433         0.414063   
    101. A(C   4,N   5,C   6)          119.4093         0.403600   
    102. A(O   7,C   6,H  51)          107.3156         0.335638   
    103. A(O   7,C   6,C  43)          107.0962         0.375926   
    104. A(N   5,C   6,H  51)          107.8223         0.333470   
    105. A(N   5,C   6,O   7)          111.6599         0.391699   
    106. A(C  43,C   6,H  51)          108.4358         0.320731   
    107. A(N   5,C   6,C  43)          114.2638         0.373403   
    108. A(C   6,O   7,C   8)          112.1795         0.397596   
    109. A(O   7,C   8,H  52)          108.7712         0.337863   
    110. A(O   7,C   8,C  41)          108.2037         0.377045   
    111. A(C   9,C   8,H  52)          109.0646         0.321695   
    112. A(O   7,C   8,C   9)          108.7235         0.380581   
    113. A(C   9,C   8,C  41)          113.5438         0.358331   
    114. A(C  41,C   8,H  52)          108.4387         0.318872   
    115. A(H  53,C   9,H  54)          109.1326         0.289680   
    116. A(C   8,C   9,H  53)          109.6593         0.322772   
    117. A(O  10,C   9,H  54)          106.0529         0.337813   
    118. A(C   8,C   9,H  54)          109.4080         0.323043   
    119. A(C   8,C   9,O  10)          111.7780         0.378843   
    120. A(O  10,C   9,H  53)          110.7169         0.337525   
    121. A(C   9,O  10,P  11)          122.5772         0.471167   
    122. A(O  12,P  11,O  13)          117.9823         0.629858   
    123. A(O  10,P  11,O  12)          113.6970         0.613171   
    124. A(O  10,P  11,O  13)          108.8873         0.578076   
    125. A(O  10,P  11,O  14)          101.3685         0.561537   
    126. A(O  13,P  11,O  14)          102.6569         0.576580   
    127. A(O  12,P  11,O  14)          110.4129         0.611568   
    128. A(P  11,O  13,H  55)          108.2621         0.420806   
    129. A(P  11,O  14,P  15)          127.1322         0.552419   
    130. A(O  17,P  15,O  18)          104.3600         0.577782   
    131. A(O  16,P  15,O  18)          117.1555         0.618701   
    132. A(O  14,P  15,O  18)          105.4694         0.555228   
    133. A(O  16,P  15,O  17)          118.1389         0.631989   
    134. A(O  14,P  15,O  17)          103.9575         0.566924   
    135. A(O  14,P  15,O  16)          106.3566         0.606934   
    136. A(P  15,O  17,H  56)          112.6547         0.425937   
    137. A(P  15,O  18,C  19)          123.9166         0.468853   
    138. A(O  18,C  19,C  20)          113.7542         0.372300   
    139. A(C  20,C  19,H  58)          108.4924         0.318510   
    140. A(O  18,C  19,H  58)          110.2405         0.334151   
    141. A(C  20,C  19,H  57)          109.6862         0.320025   
    142. A(O  18,C  19,H  57)          105.3815         0.335769   
    143. A(H  57,C  19,H  58)          109.1929         0.288916   
    144. A(C  19,C  20,C  39)          110.8410         0.360124   
    145. A(O  21,C  20,C  39)          104.9153         0.380277   
    146. A(C  19,C  20,O  21)          110.3319         0.373940   
    147. A(C  39,C  20,H  59)          111.4941         0.324980   
    148. A(C  19,C  20,H  59)          111.7796         0.319846   
    149. A(O  21,C  20,H  59)          107.1939         0.337005   
    150. A(C  20,O  21,C  22)          110.5421         0.397466   
    151. A(N  23,C  22,H  60)          107.8136         0.334316   
    152. A(O  21,C  22,H  60)          109.9405         0.337192   
    153. A(N  23,C  22,C  33)          113.0966         0.375520   
    154. A(O  21,C  22,C  33)          104.7701         0.378879   
    155. A(C  33,C  22,H  60)          110.3356         0.320464   
    156. A(O  21,C  22,N  23)          110.8755         0.396227   
    157. A(C  24,N  23,C  32)          105.4554         0.423135   
    158. A(C  22,N  23,C  32)          127.3707         0.407874   
    159. A(C  22,N  23,C  24)          127.1628         0.407200   
    160. A(N  25,C  24,H  61)          124.1888         0.370221   
    161. A(N  23,C  24,H  61)          121.6454         0.352243   
    162. A(N  23,C  24,N  25)          114.1647         0.445199   
    163. A(C  24,N  25,C  26)          104.9660         0.444933   
    164. A(C  27,C  26,C  32)          116.4333         0.426322   
    165. A(N  25,C  26,C  32)          109.7246         0.424544   
    166. A(N  25,C  26,C  27)          133.8419         0.423694   
    167. A(C  26,C  27,N  28)          122.9543         0.432794   
    168. A(N  28,C  27,N  29)          118.7919         0.441609   
    169. A(C  26,C  27,N  29)          118.2533         0.434095   
    170. A(C  27,N  28,H  63)          119.1103         0.364703   
    171. A(H  62,N  28,H  63)          121.4640         0.305461   
    172. A(C  27,N  28,H  62)          119.3827         0.364799   
    173. A(C  27,N  29,C  30)          119.2789         0.447816   
    174. A(N  31,C  30,H  64)          115.6543         0.361743   
    175. A(N  29,C  30,H  64)          116.0600         0.361940   
    176. A(N  29,C  30,N  31)          128.2857         0.452492   
    177. A(C  30,N  31,C  32)          112.9663         0.448725   
    178. A(C  26,C  32,N  31)          124.7774         0.436099   
    179. A(N  23,C  32,N  31)          129.5339         0.434383   
    180. A(N  23,C  32,C  26)          105.6881         0.425507   
    181. A(C  39,C  33,H  65)          110.0594         0.322847   
    182. A(O  34,C  33,H  65)          110.2931         0.340555   
    183. A(C  22,C  33,C  39)          100.2430         0.360290   
    184. A(C  22,C  33,H  65)          107.9468         0.322029   
    185. A(C  22,C  33,O  34)          113.7014         0.380834   
    186. A(O  34,C  33,C  39)          114.0791         0.381859   
    187. A(C  33,O  34,P  35)          115.8253         0.469908   
    188. A(O  37,P  35,O  38)          101.7082         0.585052   
    189. A(O  36,P  35,O  38)          112.0049         0.615199   
    190. A(O  34,P  35,O  38)          101.2109         0.564575   
    191. A(O  36,P  35,O  37)          118.7364         0.620518   
    192. A(O  34,P  35,O  37)          108.7422         0.569383   
    193. A(O  34,P  35,O  36)          112.5428         0.598578   
    194. A(P  35,O  37,H  66)          120.9299         0.424957   
    195. A(P  35,O  38,H  67)          111.9011         0.428236   
    196. A(C  33,C  39,O  40)          111.8623         0.383095   
    197. A(C  20,C  39,O  40)          111.3551         0.385735   
    198. A(O  40,C  39,H  68)          109.6356         0.343890   
    199. A(C  20,C  39,H  68)          111.6954         0.327070   
    200. A(C  20,C  39,C  33)           99.0826         0.363688   
    201. A(C  33,C  39,H  68)          112.8962         0.324952   
    202. A(C  39,O  40,H  69)          107.2081         0.359452   
    203. A(O  42,C  41,H  70)          110.4247         0.341783   
    204. A(C   8,C  41,H  70)          110.0100         0.319427   
    205. A(O  42,C  41,C  43)          109.3414         0.380846   
    206. A(C   8,C  41,C  43)          103.8695         0.355036   
    207. A(C   8,C  41,O  42)          112.8974         0.380877   
    208. A(C  43,C  41,H  70)          110.1026         0.319403   
    209. A(C  41,O  42,H  71)          108.3439         0.359206   
    210. A(C  41,C  43,O  44)          111.5889         0.381228   
    211. A(C   6,C  43,O  44)          109.5363         0.383185   
    212. A(C   6,C  43,C  41)          104.3239         0.356789   
    213. A(O  44,C  43,H  72)          109.5737         0.341558   
    214. A(C  41,C  43,H  72)          111.3498         0.318898   
    215. A(C   6,C  43,H  72)          110.3599         0.320437   
    216. A(C  43,O  44,H  73)          106.9016         0.360001   
    217. A(N   5,C  45,C  46)          122.5299         0.438934   
    218. A(C  46,C  45,H  74)          122.1871         0.368524   
    219. A(N   5,C  45,H  74)          115.2830         0.344874   
    220. A(C  45,C  46,C  47)          123.1052         0.419675   
    221. A(C  47,C  46,H  75)          117.3995         0.331577   
    222. A(C  45,C  46,H  75)          119.4886         0.369433   
    223. A(C   3,C  47,C  46)          109.6664         0.372881   
    224. A(H  76,C  47,H  77)          105.9750         0.285309   
    225. A(C  46,C  47,H  77)          110.7784         0.325665   
    226. A(C   3,C  47,H  77)          109.6317         0.323881   
    227. A(C  46,C  47,H  76)          111.0890         0.326263   
    228. A(C   3,C  47,H  76)          109.6338         0.324474   
    229. D(C   3,C   1,N   0,H  48)    175.9884         0.030400   
    230. D(O   2,C   1,N   0,H  48)     -4.9632         0.030400   
    231. D(O   2,C   1,N   0,H  49)   -166.1117         0.030400   
    232. D(C   3,C   1,N   0,H  49)     14.8399         0.030400   
    233. D(C   4,C   3,C   1,O   2)   -167.4241         0.014156   
    234. D(C  47,C   3,C   1,O   2)     10.0498         0.014156   
    235. D(C  47,C   3,C   1,N   0)   -170.9150         0.014156   
    236. D(C   4,C   3,C   1,N   0)     11.6111         0.014156   
    237. D(H  50,C   4,C   3,C  47)   -176.3715         0.038755   
    238. D(N   5,C   4,C   3,C  47)      2.2610         0.038755   
    239. D(H  50,C   4,C   3,C   1)      0.9332         0.038755   
    240. D(N   5,C   4,C   3,C   1)    179.5657         0.038755   
    241. D(C  45,N   5,C   4,C   3)     11.2165         0.027195   
    242. D(C  45,N   5,C   4,H  50)   -170.0412         0.027195   
    243. D(C   6,N   5,C   4,H  50)     -7.6892         0.027195   
    244. D(C   6,N   5,C   4,C   3)    173.5684         0.027195   
    245. D(C  43,C   6,N   5,C   4)    148.1059         0.019052   
    246. D(H  51,C   6,N   5,C  45)   -170.9225         0.019052   
    247. D(O   7,C   6,N   5,C   4)    -90.1603         0.019052   
    248. D(H  51,C   6,N   5,C   4)     27.4896         0.019052   
    249. D(O   7,C   6,N   5,C  45)     71.4276         0.019052   
    250. D(C  43,C   6,N   5,C  45)    -50.3062         0.019052   
    251. D(C   8,O   7,C   6,H  51)    129.4072         0.019035   
    252. D(C   8,O   7,C   6,C  43)     13.1464         0.019035   
    253. D(C   8,O   7,C   6,N   5)   -112.6387         0.019035   
    254. D(H  52,C   8,O   7,C   6)   -117.8209         0.020942   
    255. D(C  41,C   8,O   7,C   6)     -0.2125         0.020942   
    256. D(C   9,C   8,O   7,C   6)    123.5294         0.020942   
    257. D(O  10,C   9,C   8,O   7)    175.9897         0.010857   
    258. D(O  10,C   9,C   8,C  41)    -63.5137         0.010857   
    259. D(O  10,C   9,C   8,H  52)     57.5247         0.010857   
    260. D(H  54,C   9,C   8,O   7)     58.8297         0.010857   
    261. D(H  54,C   9,C   8,C  41)    179.3263         0.010857   
    262. D(H  53,C   9,C   8,C  41)     59.6648         0.010857   
    263. D(H  53,C   9,C   8,O   7)    -60.8317         0.010857   
    264. D(H  54,C   9,C   8,H  52)    -59.6353         0.010857   
    265. D(H  53,C   9,C   8,H  52)   -179.2968         0.010857   
    266. D(P  11,O  10,C   9,H  54)   -158.5064         0.019827   
    267. D(P  11,O  10,C   9,C   8)     82.3295         0.019827   
    268. D(P  11,O  10,C   9,H  53)    -40.2474         0.019827   
    269. D(O  14,P  11,O  10,C   9)    139.7420         0.013933   
    270. D(O  13,P  11,O  10,C   9)     31.9835         0.013933   
    271. D(O  12,P  11,O  10,C   9)   -101.7833         0.013933   
    272. D(H  55,O  13,P  11,O  14)    -35.3121         0.018263   
    273. D(H  55,O  13,P  11,O  12)   -156.9204         0.018263   
    274. D(H  55,O  13,P  11,O  10)     71.5672         0.018263   
    275. D(P  15,O  14,P  11,O  12)    -41.5525         0.013576   
    276. D(P  15,O  14,P  11,O  13)   -168.1850         0.013576   
    277. D(P  15,O  14,P  11,O  10)     79.2605         0.013576   
    278. D(O  16,P  15,O  14,P  11)    168.6557         0.011836   
    279. D(O  17,P  15,O  14,P  11)     43.2473         0.011836   
    280. D(O  18,P  15,O  14,P  11)    -66.2614         0.011836   
    281. D(H  56,O  17,P  15,O  18)     85.2578         0.017699   
    282. D(H  56,O  17,P  15,O  16)   -142.5828         0.017699   
    283. D(H  56,O  17,P  15,O  14)    -25.0664         0.017699   
    284. D(C  19,O  18,P  15,O  17)    141.3544         0.014290   
    285. D(C  19,O  18,P  15,O  16)      8.6316         0.014290   
    286. D(C  19,O  18,P  15,O  14)   -109.4259         0.014290   
    287. D(H  57,C  19,O  18,P  15)   -142.6667         0.018264   
    288. D(C  20,C  19,O  18,P  15)     97.1484         0.018264   
    289. D(H  58,C  19,O  18,P  15)    -24.9668         0.018264   
    290. D(O  21,C  20,C  19,H  57)     88.2637         0.009698   
    291. D(O  21,C  20,C  19,O  18)   -154.0103         0.009698   
    292. D(H  59,C  20,C  19,H  58)   -150.1128         0.009698   
    293. D(H  59,C  20,C  19,H  57)    -30.9150         0.009698   
    294. D(H  59,C  20,C  19,O  18)     86.8110         0.009698   
    295. D(C  39,C  20,C  19,H  58)     84.8366         0.009698   
    296. D(C  39,C  20,C  19,H  57)   -155.9656         0.009698   
    297. D(C  39,C  20,C  19,O  18)    -38.2396         0.009698   
    298. D(O  21,C  20,C  19,H  58)    -30.9341         0.009698   
    299. D(C  22,O  21,C  20,H  59)   -136.6749         0.019244   
    300. D(C  22,O  21,C  20,C  39)    -18.0324         0.019244   
    301. D(C  22,O  21,C  20,C  19)    101.3967         0.019244   
    302. D(H  60,C  22,O  21,C  20)    107.8247         0.020632   
    303. D(C  33,C  22,O  21,C  20)    -10.7280         0.020632   
    304. D(N  23,C  22,O  21,C  20)   -133.0543         0.020632   
    305. D(C  32,N  23,C  22,C  33)    -56.9678         0.020121   
    306. D(C  32,N  23,C  22,O  21)     60.3723         0.020121   
    307. D(C  32,N  23,C  22,H  60)   -179.2345         0.020121   
    308. D(C  24,N  23,C  22,H  60)     -0.6229         0.020121   
    309. D(C  24,N  23,C  22,C  33)    121.6438         0.020121   
    310. D(C  24,N  23,C  22,O  21)   -121.0161         0.020121   
    311. D(H  61,C  24,N  23,C  32)   -179.9778         0.028607   
    312. D(H  61,C  24,N  23,C  22)      1.1670         0.028607   
    313. D(N  25,C  24,N  23,C  32)      0.3784         0.028607   
    314. D(N  25,C  24,N  23,C  22)   -178.4768         0.028607   
    315. D(C  26,N  25,C  24,H  61)   -179.9369         0.049073   
    316. D(C  26,N  25,C  24,N  23)     -0.3035         0.049073   
    317. D(C  27,C  26,N  25,C  24)    179.9189         0.025750   
    318. D(C  32,C  26,N  25,C  24)      0.1101         0.025750   
    319. D(N  29,C  27,C  26,C  32)      0.1164         0.023648   
    320. D(N  28,C  27,C  26,C  32)   -179.6175         0.023648   
    321. D(N  29,C  27,C  26,N  25)   -179.6826         0.023648   
    322. D(N  28,C  27,C  26,N  25)      0.5835         0.023648   
    323. D(H  63,N  28,C  27,N  29)      1.2666         0.036704   
    324. D(H  63,N  28,C  27,C  26)   -179.0007         0.036704   
    325. D(H  62,N  28,C  27,N  29)    178.9162         0.036704   
    326. D(H  62,N  28,C  27,C  26)     -1.3512         0.036704   
    327. D(C  30,N  29,C  27,N  28)    179.3422         0.034459   
    328. D(C  30,N  29,C  27,C  26)     -0.4031         0.034459   
    329. D(H  64,C  30,N  29,C  27)    179.9829         0.039339   
    330. D(N  31,C  30,N  29,C  27)      0.0781         0.039339   
    331. D(C  32,N  31,C  30,H  64)   -179.3813         0.039062   
    332. D(C  32,N  31,C  30,N  29)      0.5239         0.039062   
    333. D(C  26,C  32,N  31,C  30)     -0.8229         0.035559   
    334. D(N  23,C  32,N  31,C  30)    179.5219         0.035559   
    335. D(N  31,C  32,C  26,C  27)      0.5418         0.024212   
    336. D(N  31,C  32,C  26,N  25)   -179.6122         0.024212   
    337. D(N  23,C  32,C  26,C  27)   -179.7344         0.024212   
    338. D(N  23,C  32,C  26,N  25)      0.1116         0.024212   
    339. D(N  31,C  32,N  23,C  24)    179.4308         0.029187   
    340. D(N  31,C  32,N  23,C  22)     -1.7172         0.029187   
    341. D(C  26,C  32,N  23,C  24)     -0.2751         0.029187   
    342. D(C  26,C  32,N  23,C  22)    178.5770         0.029187   
    343. D(H  65,C  33,C  22,N  23)     40.2500         0.010485   
    344. D(H  65,C  33,C  22,O  21)    -80.6184         0.010485   
    345. D(C  39,C  33,C  22,H  60)    -83.7588         0.010485   
    346. D(C  39,C  33,C  22,N  23)    155.3946         0.010485   
    347. D(C  39,C  33,C  22,O  21)     34.5262         0.010485   
    348. D(O  34,C  33,C  22,H  60)     38.3904         0.010485   
    349. D(O  34,C  33,C  22,N  23)    -82.4563         0.010485   
    350. D(H  65,C  33,C  22,H  60)    161.0966         0.010485   
    351. D(O  34,C  33,C  22,O  21)    156.6753         0.010485   
    352. D(P  35,O  34,C  33,H  65)     59.2686         0.021947   
    353. D(P  35,O  34,C  33,C  39)    -65.1888         0.021947   
    354. D(P  35,O  34,C  33,C  22)   -179.3242         0.021947   
    355. D(O  36,P  35,O  34,C  33)     71.2853         0.012348   
    356. D(O  38,P  35,O  34,C  33)   -168.9892         0.012348   
    357. D(O  37,P  35,O  34,C  33)    -62.3879         0.012348   
    358. D(H  66,O  37,P  35,O  38)    159.6388         0.017702   
    359. D(H  66,O  37,P  35,O  36)    -76.9925         0.017702   
    360. D(H  66,O  37,P  35,O  34)     53.3794         0.017702   
    361. D(H  67,O  38,P  35,O  37)    144.4990         0.016218   
    362. D(H  67,O  38,P  35,O  36)     16.6686         0.016218   
    363. D(H  67,O  38,P  35,O  34)   -103.4398         0.016218   
    364. D(H  68,C  39,C  33,H  65)    -48.1660         0.010793   
    365. D(H  68,C  39,C  33,O  34)     76.4163         0.010793   
    366. D(O  40,C  39,C  33,H  65)   -172.3948         0.010793   
    367. D(O  40,C  39,C  33,O  34)    -47.8126         0.010793   
    368. D(O  40,C  39,C  33,C  22)     74.0690         0.010793   
    369. D(C  20,C  39,C  33,H  65)     70.1219         0.010793   
    370. D(C  20,C  39,C  33,O  34)   -165.2959         0.010793   
    371. D(C  20,C  39,C  33,C  22)    -43.4143         0.010793   
    372. D(H  68,C  39,C  20,H  59)    -86.4820         0.011627   
    373. D(H  68,C  39,C  20,O  21)    157.8172         0.011627   
    374. D(H  68,C  39,C  20,C  19)     38.7296         0.011627   
    375. D(O  40,C  39,C  20,H  59)     36.4659         0.011627   
    376. D(O  40,C  39,C  20,O  21)    -79.2349         0.011627   
    377. D(O  40,C  39,C  20,C  19)    161.6774         0.011627   
    378. D(H  68,C  39,C  33,C  22)   -161.7022         0.010793   
    379. D(C  33,C  39,C  20,H  59)    154.3322         0.011627   
    380. D(C  33,C  39,C  20,O  21)     38.6314         0.011627   
    381. D(C  33,C  39,C  20,C  19)    -80.4563         0.011627   
    382. D(H  69,O  40,C  39,H  68)    -52.0194         0.022818   
    383. D(H  69,O  40,C  39,C  33)     74.0133         0.022818   
    384. D(H  69,O  40,C  39,C  20)   -176.1397         0.022818   
    385. D(H  70,C  41,C   8,H  52)   -136.8997         0.009823   
    386. D(H  70,C  41,C   8,C   9)    -15.5107         0.009823   
    387. D(H  70,C  41,C   8,O   7)    105.2788         0.009823   
    388. D(C  43,C  41,C   8,H  52)    105.2809         0.009823   
    389. D(C  43,C  41,C   8,C   9)   -133.3301         0.009823   
    390. D(C  43,C  41,C   8,O   7)    -12.5406         0.009823   
    391. D(O  42,C  41,C   8,H  52)    -13.0529         0.009823   
    392. D(O  42,C  41,C   8,C   9)    108.3361         0.009823   
    393. D(O  42,C  41,C   8,O   7)   -130.8744         0.009823   
    394. D(H  71,O  42,C  41,H  70)     32.8712         0.023660   
    395. D(H  71,O  42,C  41,C  43)    154.1637         0.023660   
    396. D(H  71,O  42,C  41,C   8)    -90.7469         0.023660   
    397. D(H  72,C  43,C  41,H  70)     20.7202         0.009815   
    398. D(H  72,C  43,C  41,O  42)   -100.7672         0.009815   
    399. D(H  72,C  43,C  41,C   8)    138.4754         0.009815   
    400. D(O  44,C  43,C  41,O  42)     22.0198         0.009815   
    401. D(O  44,C  43,C  41,C   8)    -98.7376         0.009815   
    402. D(C   6,C  43,C  41,H  70)    -98.3149         0.009815   
    403. D(C   6,C  43,C  41,O  42)    140.1977         0.009815   
    404. D(C   6,C  43,C  41,C   8)     19.4403         0.009815   
    405. D(H  72,C  43,C   6,H  51)    104.4820         0.010364   
    406. D(H  72,C  43,C   6,O   7)   -140.0016         0.010364   
    407. D(H  72,C  43,C   6,N   5)    -15.7925         0.010364   
    408. D(O  44,C  43,C   6,H  51)    -16.2386         0.010364   
    409. D(O  44,C  43,C   6,O   7)     99.2778         0.010364   
    410. D(O  44,C  43,C  41,H  70)    143.5072         0.009815   
    411. D(O  44,C  43,C   6,N   5)   -136.5131         0.010364   
    412. D(C  41,C  43,C   6,H  51)   -135.8127         0.010364   
    413. D(C  41,C  43,C   6,O   7)    -20.2964         0.010364   
    414. D(C  41,C  43,C   6,N   5)    103.9127         0.010364   
    415. D(H  73,O  44,C  43,H  72)    103.6603         0.023949   
    416. D(H  73,O  44,C  43,C  41)    -20.1360         0.023949   
    417. D(H  73,O  44,C  43,C   6)   -135.1430         0.023949   
    418. D(H  74,C  45,N   5,C   6)      6.1940         0.023706   
    419. D(H  74,C  45,N   5,C   4)    168.2162         0.023706   
    420. D(C  46,C  45,N   5,C   6)   -173.8252         0.023706   
    421. D(C  46,C  45,N   5,C   4)    -11.8031         0.023706   
    422. D(H  75,C  46,C  45,H  74)     -0.1953         0.043410   
    423. D(H  75,C  46,C  45,N   5)    179.8253         0.043410   
    424. D(C  47,C  46,C  45,H  74)    178.8357         0.043410   
    425. D(C  47,C  46,C  45,N   5)     -1.1438         0.043410   
    426. D(H  77,C  47,C  46,H  75)     71.1189         0.012429   
    427. D(H  77,C  47,C  46,C  45)   -107.9311         0.012429   
    428. D(H  76,C  47,C  46,C  45)    134.5642         0.012429   
    429. D(C   3,C  47,C  46,H  75)   -167.7358         0.012429   
    430. D(C   3,C  47,C  46,C  45)     13.2143         0.012429   
    431. D(H  77,C  47,C   3,C   4)    108.1774         0.011658   
    432. D(H  77,C  47,C   3,C   1)    -69.3781         0.011658   
    433. D(H  76,C  47,C   3,C   4)   -135.8783         0.011658   
    434. D(H  76,C  47,C  46,H  75)    -46.3859         0.012429   
    435. D(H  76,C  47,C   3,C   1)     46.5661         0.011658   
    436. D(C  46,C  47,C   3,C   4)    -13.6568         0.011658   
    437. D(C  46,C  47,C   3,C   1)    168.7876         0.011658   
    -----------------------------------------------------------------

Number of atoms                         .... 78
Number of degrees of freedom            .... 437

         *************************************************************
         *                GEOMETRY OPTIMIZATION CYCLE   1            *
         *************************************************************
---------------------------------
CARTESIAN COORDINATES (ANGSTROEM)
---------------------------------
  N     7.912840   -3.916082    1.344804
  C     7.481964   -3.922595    0.049523
  O     7.806012   -4.821152   -0.709309
  C     6.635573   -2.796241   -0.389884
  C     6.447770   -1.669016    0.318603
  N     5.661504   -0.617639   -0.104135
  C     5.414744    0.481336    0.787025
  O     4.246186    0.267528    1.575163
  C     3.209193    1.169645    1.247266
  C     1.961675    0.365932    0.859725
  O     0.848774    1.210675    0.604927
  P     0.627742    1.938263   -0.792711
  O     1.003180    3.359566   -0.784787
  O     1.199624    1.039630   -1.923429
  O    -0.947653    1.780146   -0.983762
  P    -2.107086    2.664704   -0.290922
  O    -3.350296    2.325375   -0.979335
  O    -1.581256    4.126781   -0.402054
  O    -2.023449    2.332970    1.259303
  C    -3.007375    1.572286    1.967366
  C    -2.638669    0.075686    2.134122
  O    -3.817127   -0.711640    2.274240
  C    -4.130485   -1.357735    1.054986
  N    -5.516209   -1.206849    0.740208
  C    -6.437723   -2.206972    0.552800
  N    -7.621363   -1.785591    0.245944
  C    -7.516240   -0.416074    0.225894
  C    -8.423588    0.627501   -0.035041
  N    -9.713190    0.414775   -0.336872
  N    -7.975926    1.885672    0.027155
  C    -6.711339    2.106625    0.336294
  N    -5.768200    1.221834    0.607413
  C    -6.200137   -0.037190    0.535982
  C    -3.200979   -0.706554    0.015727
  O    -2.963697   -1.511265   -1.113670
  P    -1.984199   -0.886423   -2.225922
  O    -0.567715   -0.840022   -1.776668
  O    -2.633215    0.411528   -2.792077
  O    -2.191738   -1.890871   -3.414314
  C    -1.957332   -0.457852    0.879789
  O    -1.259158   -1.644502    1.143595
  C     3.718039    2.103048    0.121427
  O     3.487225    3.454576    0.389966
  C     5.243803    1.841016    0.083232
  O     5.950680    2.820471    0.782245
  C     4.846781   -0.843692   -1.216092
  C     4.975115   -1.917946   -1.990541
  C     6.020188   -2.976294   -1.761427
  H     8.436928   -4.720025    1.649667
  H     7.513410   -3.319376    2.046364
  H     6.923846   -1.496192    1.273800
  H     6.265839    0.552090    1.477019
  H     2.981103    1.783004    2.131091
  H     2.181723   -0.257819   -0.011886
  H     1.669195   -0.275611    1.694603
  H     0.596632    0.250290   -2.031219
  H    -0.608082    4.172573   -0.466375
  H    -3.086162    2.043277    2.949198
  H    -3.978890    1.637317    1.456187
  H    -2.028534   -0.094797    3.024482
  H    -3.918806   -2.435182    1.135757
  H    -6.173278   -3.241520    0.651967
  H   -10.054856   -0.526660   -0.402040
  H   -10.306523    1.202009   -0.527517
  H    -6.405042    3.142984    0.371525
  H    -3.645719    0.245706   -0.284026
  H    -2.926486    1.130212   -2.194001
  H    -1.457575   -2.497204   -3.501146
  H    -1.284382    0.271878    0.448930
  H    -0.802898   -1.895044    0.328930
  H     3.262816    1.819737   -0.835401
  H     2.620941    3.696554    0.020008
  H     5.614750    1.786080   -0.950301
  H     5.367672    3.593291    0.852311
  H     4.101299   -0.082060   -1.405486
  H     4.317259   -2.044759   -2.835769
  H     5.585214   -3.988987   -1.843246
  H     6.811898   -2.920997   -2.534922

----------------------------
CARTESIAN COORDINATES (A.U.)
----------------------------
  NO LB    ZA    FRAG    MASS        X           Y           Z
   0 N   7.0000    0    14.007   14.953101   -7.400322    2.541311
   1 C   6.0000    0    12.011   14.138863   -7.412630    0.093585
   2 O   8.0000    0    15.999   14.751225   -9.110657   -1.340400
   3 C   6.0000    0    12.011   12.539416   -5.284130   -0.736774
   4 C   6.0000    0    12.011   12.184519   -3.153983    0.602072
   5 N   7.0000    0    14.007   10.698692   -1.167169   -0.196787
   6 C   6.0000    0    12.011   10.232383    0.909593    1.487262
   7 O   8.0000    0    15.999    8.024129    0.505555    2.976627
   8 C   6.0000    0    12.011    6.064496    2.210309    2.356991
   9 C   6.0000    0    12.011    3.707029    0.691511    1.624645
  10 O   8.0000    0    15.999    1.603950    2.287844    1.143146
  11 P  15.0000    0    30.974    1.186260    3.662786   -1.498007
  12 O   8.0000    0    15.999    1.895735    6.348660   -1.483033
  13 O   8.0000    0    15.999    2.266961    1.964616   -3.634754
  14 O   8.0000    0    15.999   -1.790805    3.363988   -1.859041
  15 P  15.0000    0    30.974   -3.981815    5.035561   -0.549763
  16 O   8.0000    0    15.999   -6.331142    4.394322   -1.850675
  17 O   8.0000    0    15.999   -2.988141    7.798486   -0.759772
  18 O   8.0000    0    15.999   -3.823764    4.408674    2.379738
  19 C   6.0000    0    12.011   -5.683115    2.971190    3.717783
  20 C   6.0000    0    12.011   -4.986362    0.143026    4.032906
  21 O   8.0000    0    15.999   -7.213325   -1.344805    4.297691
  22 C   6.0000    0    12.011   -7.805485   -2.565747    1.993635
  23 N   7.0000    0    14.007  -10.424124   -2.280614    1.398790
  24 C   6.0000    0    12.011  -12.165533   -4.170573    1.044641
  25 N   7.0000    0    14.007  -14.402289   -3.374278    0.464767
  26 C   6.0000    0    12.011  -14.203635   -0.786266    0.426878
  27 C   6.0000    0    12.011  -15.918274    1.185805   -0.066218
  28 N   7.0000    0    14.007  -18.355269    0.783811   -0.636596
  29 N   7.0000    0    14.007  -15.072316    3.563404    0.051316
  30 C   6.0000    0    12.011  -12.682593    3.980944    0.635504
  31 N   7.0000    0    14.007  -10.900318    2.308932    1.147844
  32 C   6.0000    0    12.011  -11.716561   -0.070279    1.012859
  33 C   6.0000    0    12.011   -6.048974   -1.335194    0.029720
  34 O   8.0000    0    15.999   -5.600576   -2.855877   -2.104531
  35 P  15.0000    0    30.974   -3.749593   -1.675097   -4.206383
  36 O   8.0000    0    15.999   -1.072826   -1.587412   -3.357416
  37 O   8.0000    0    15.999   -4.976055    0.777675   -5.276261
  38 O   8.0000    0    15.999   -4.141785   -3.573228   -6.452118
  39 C   6.0000    0    12.011   -3.698821   -0.865215    1.662560
  40 O   8.0000    0    15.999   -2.379464   -3.107658    2.161081
  41 C   6.0000    0    12.011    7.026075    3.974185    0.229464
  42 O   8.0000    0    15.999    6.589900    6.528203    0.736929
  43 C   6.0000    0    12.011    9.909352    3.479016    0.157286
  44 O   8.0000    0    15.999   11.245156    5.329918    1.478229
  45 C   6.0000    0    12.011    9.159089   -1.594347   -2.298081
  46 C   6.0000    0    12.011    9.401605   -3.624393   -3.761577
  47 C   6.0000    0    12.011   11.376507   -5.624381   -3.328615
  48 H   1.0000    0     1.008   15.943483   -8.919555    3.117419
  49 H   1.0000    0     1.008   14.198287   -6.272712    3.867068
  50 H   1.0000    0     1.008   13.084173   -2.827393    2.407133
  51 H   1.0000    0     1.008   11.840720    1.043299    2.791161
  52 H   1.0000    0     1.008    5.633468    3.369389    4.027178
  53 H   1.0000    0     1.008    4.122859   -0.487207   -0.022461
  54 H   1.0000    0     1.008    3.154321   -0.520829    3.202336
  55 H   1.0000    0     1.008    1.127471    0.472980   -3.838448
  56 H   1.0000    0     1.008   -1.149108    7.885020   -0.881321
  57 H   1.0000    0     1.008   -5.832001    3.861234    5.573177
  58 H   1.0000    0     1.008   -7.519012    3.094081    2.751795
  59 H   1.0000    0     1.008   -3.833374   -0.179140    5.715443
  60 H   1.0000    0     1.008   -7.405470   -4.601827    2.146270
  61 H   1.0000    0     1.008  -11.665805   -6.125585    1.232039
  62 H   1.0000    0     1.008  -19.000924   -0.995243   -0.759745
  63 H   1.0000    0     1.008  -19.476506    2.271468   -0.996863
  64 H   1.0000    0     1.008  -12.103775    5.939379    0.702081
  65 H   1.0000    0     1.008   -6.889410    0.464317   -0.536731
  66 H   1.0000    0     1.008   -5.530257    2.135791   -4.146061
  67 H   1.0000    0     1.008   -2.754418   -4.719032   -6.616207
  68 H   1.0000    0     1.008   -2.427130    0.513775    0.848355
  69 H   1.0000    0     1.008   -1.517257   -3.581114    0.621588
  70 H   1.0000    0     1.008    6.165829    3.438805   -1.578679
  71 H   1.0000    0     1.008    4.952861    6.985475    0.037810
  72 H   1.0000    0     1.008   10.610340    3.375202   -1.795809
  73 H   1.0000    0     1.008   10.143430    6.790336    1.610634
  74 H   1.0000    0     1.008    7.750332   -0.155071   -2.655984
  75 H   1.0000    0     1.008    8.158437   -3.864035   -5.358827
  76 H   1.0000    0     1.008   10.554525   -7.538093   -3.483230
  77 H   1.0000    0     1.008   12.872622   -5.519884   -4.790308

      -----------------------------------------------------------      
     |                   =====================                   |     
     |                           x T B                           |     
     |                   =====================                   |     
     |                         S. Grimme                         |     
     |          Mulliken Center for Theoretical Chemistry        |     
     |                    University of Bonn                     |     
      -----------------------------------------------------------      

   * xtb version 6.5.1 (579679a) compiled by 'ehlert@majestix' on 2022-07-11

   xtb is free software: you can redistribute it and/or modify it under
   the terms of the GNU Lesser General Public License as published by
   the Free Software Foundation, either version 3 of the License, or
   (at your option) any later version.
   
   xtb is distributed in the hope that it will be useful,
   but WITHOUT ANY WARRANTY; without even the implied warranty of
   MERCHANTABILITY or FITNESS FOR A PARTICULAR PURPOSE.  See the
   GNU Lesser General Public License for more details.
   
   Cite this work as:
   * C. Bannwarth, E. Caldeweyher, S. Ehlert, A. Hansen, P. Pracht,
     J. Seibert, S. Spicher, S. Grimme, WIREs Comput. Mol. Sci., 2020, 11,
     e01493. DOI: 10.1002/wcms.1493
   
   for GFN2-xTB:
   * C. Bannwarth, S. Ehlert and S. Grimme., J. Chem. Theory Comput., 2019,
     15, 1652-1671. DOI: 10.1021/acs.jctc.8b01176
   for GFN1-xTB:
   * S. Grimme, C. Bannwarth, P. Shushkov, J. Chem. Theory Comput., 2017,
     13, 1989-2009. DOI: 10.1021/acs.jctc.7b00118
   for GFN0-xTB:
   * P. Pracht, E. Caldeweyher, S. Ehlert, S. Grimme, ChemRxiv, 2019, preprint.
     DOI: 10.26434/chemrxiv.8326202.v1
   for GFN-FF:
   * S. Spicher and S. Grimme, Angew. Chem. Int. Ed., 2020, 59, 15665-15673.
     DOI: 10.1002/anie.202004239
   
   for ALPB and GBSA implicit solvation:
   * S. Ehlert, M. Stahn, S. Spicher, S. Grimme, J. Chem. Theory Comput.,
     2021, 17, 4250-4261. DOI: 10.1021/acs.jctc.1c00471
   
   for DFT-D4:
   * E. Caldeweyher, C. Bannwarth and S. Grimme, J. Chem. Phys., 2017,
     147, 034112. DOI: 10.1063/1.4993215
   * E. Caldeweyher, S. Ehlert, A. Hansen, H. Neugebauer, S. Spicher,
     C. Bannwarth and S. Grimme, J. Chem. Phys., 2019, 150, 154122.
     DOI: 10.1063/1.5090222
   * E. Caldeweyher, J.-M. Mewes, S. Ehlert and S. Grimme, Phys. Chem. Chem. Phys.
     2020, 22, 8499-8512. DOI: 10.1039/D0CP00502A
   
   for sTDA-xTB:
   * S. Grimme and C. Bannwarth, J. Chem. Phys., 2016, 145, 054103.
     DOI: 10.1063/1.4959605
   
   in the mass-spec context:
   * V. Asgeirsson, C. Bauer and S. Grimme, Chem. Sci., 2017, 8, 4879.
     DOI: 10.1039/c7sc00601b
   * J. Koopman and S. Grimme, ACS Omega 2019, 4, 12, 15120-15133.
     DOI: 10.1021/acsomega.9b02011
   
   for metadynamics refer to:
   * S. Grimme, J. Chem. Theory Comput., 2019, 155, 2847-2862
     DOI: 10.1021/acs.jctc.9b00143
   
   for SPH calculations refer to:
   * S. Spicher and S. Grimme, J. Chem. Theory Comput., 2021, 17, 1701-1714
     DOI: 10.1021/acs.jctc.0c01306
   
   with help from (in alphabetical order)
   P. Atkinson, C. Bannwarth, F. Bohle, G. Brandenburg, E. Caldeweyher
   M. Checinski, S. Dohm, S. Ehlert, S. Ehrlich, I. Gerasimov, C. Hlzer
   A. Katbashev, J. Koopman, C. Lavigne, S. Lehtola, F. Mrz, M. Mller,
   F. Musil, H. Neugebauer, J. Pisarek, C. Plett, P. Pracht, F. Pultar,
   J. Seibert, P. Shushkov, S. Spicher, M. Stahn, M. Steiner, T. Strunk,
   J. Stckrath, T. Rose, and J. Unsleber
   
 * started run on 2023/12/04 at 15:32:31.478     

           -------------------------------------------------
          |                Calculation Setup                |
           -------------------------------------------------

          program call               : otool_xtb /tmp/C00005_XTB.xyz --grad -c 0 -u 0 -P 1 --namespace /tmp/C00005 --input /tmp/C00005_XTB.input.tmp --acc 1.000000
          calculation namespace      : /tmp/C00005
          coordinate file            : /tmp/C00005_XTB.xyz
          omp threads                :                     1

   ID    Z sym.   atoms
    1    7 N      1, 6, 24, 26, 29, 30, 32
    2    6 C      2, 4, 5, 7, 9, 10, 20, 21, 23, 25, 27, 28, 31, 33, 34, 40,
                  42, 44, 46-48
    3    8 O      3, 8, 11, 13-15, 17-19, 22, 35, 37-39, 41, 43, 45
    4   15 P      12, 16, 36
    5    1 H      49-78

           -------------------------------------------------
          |                 G F N 2 - x T B                 |
           -------------------------------------------------

        Reference                      10.1021/acs.jctc.8b01176
      * Hamiltonian:
        H0-scaling (s, p, d)           1.850000    2.230000    2.230000
        zeta-weighting                 0.500000
      * Dispersion:
        s8                             2.700000
        a1                             0.520000
        a2                             5.000000
        s9                             5.000000
      * Repulsion:
        kExp                           1.500000    1.000000
        rExp                           1.000000
      * Coulomb:
        alpha                          2.000000
        third order                    shell-resolved
        anisotropic                    true
        a3                             3.000000
        a5                             4.000000
        cn-shift                       1.200000
        cn-exp                         4.000000
        max-rad                        5.000000

q/qsh data taken from xtbrestart
CAMM data taken from xtbrestart

          ...................................................
          :                      SETUP                      :
          :.................................................:
          :  # basis functions                 240          :
          :  # atomic orbitals                 237          :
          :  # shells                          129          :
          :  # electrons                       266          :
          :  max. iterations                   250          :
          :  Hamiltonian                  GFN2-xTB          :
          :  restarted?                       true          :
          :  GBSA solvation                  false          :
          :  PC potential                    false          :
          :  electronic temp.          300.0000000     K    :
          :  accuracy                    1.0000000          :
          :  -> integral cutoff          0.2500000E+02      :
          :  -> integral neglect         0.1000000E-07      :
          :  -> SCF convergence          0.1000000E-05 Eh   :
          :  -> wf. convergence          0.1000000E-03 e    :
          :  Broyden damping             0.4000000          :
          ...................................................

 iter      E             dE          RMSdq      gap      omega  full diag
   1   -159.4109571 -0.159411E+03  0.240E-01    2.55       0.0  T
   2   -159.4109795 -0.223905E-04  0.141E-01    2.55       1.0  T
   3   -159.4109657  0.138411E-04  0.180E-02    2.55       1.0  T
   4   -159.4109837 -0.179905E-04  0.820E-03    2.54       1.4  T
   5   -159.4109869 -0.326506E-05  0.333E-03    2.54       3.4  T
   6   -159.4109870 -0.770229E-07  0.137E-03    2.54       8.3  T
   7   -159.4109871 -0.551852E-07  0.563E-04    2.54      20.1  T
   8   -159.4109871 -0.111384E-07  0.240E-04    2.54      47.1  T

   *** convergence criteria satisfied after 8 iterations ***

         #    Occupation            Energy/Eh            Energy/eV
      -------------------------------------------------------------
         1        2.0000           -0.7864438             -21.4002
       ...           ...                  ...                  ...
       127        2.0000           -0.4213271             -11.4649
       128        2.0000           -0.4079549             -11.1010
       129        2.0000           -0.3979784             -10.8295
       130        2.0000           -0.3915543             -10.6547
       131        2.0000           -0.3838439             -10.4449
       132        2.0000           -0.3714127             -10.1067
       133        2.0000           -0.3522199              -9.5844 (HOMO)
       134                         -0.2587391              -7.0407 (LUMO)
       135                         -0.2502138              -6.8087
       136                         -0.2338757              -6.3641
       137                         -0.2059396              -5.6039
       138                         -0.1932144              -5.2576
       ...                                ...                  ...
       237                          1.5332310              41.7213
      -------------------------------------------------------------
                  HL-Gap            0.0934808 Eh            2.5437 eV
             Fermi-level           -0.3054795 Eh           -8.3125 eV

 SCC (total)                   0 d,  0 h,  0 min,  0.232 sec
 SCC setup                      ...        0 min,  0.001 sec (  0.336%)
 Dispersion                     ...        0 min,  0.002 sec (  0.700%)
 classical contributions        ...        0 min,  0.000 sec (  0.118%)
 integral evaluation            ...        0 min,  0.031 sec ( 13.142%)
 iterations                     ...        0 min,  0.085 sec ( 36.405%)
 molecular gradient             ...        0 min,  0.113 sec ( 48.674%)
 printout                       ...        0 min,  0.001 sec (  0.614%)

         :::::::::::::::::::::::::::::::::::::::::::::::::::::
         ::                     SUMMARY                     ::
         :::::::::::::::::::::::::::::::::::::::::::::::::::::
         :: total energy            -157.999990089580 Eh    ::
         :: gradient norm              0.012589992599 Eh/a0 ::
         :: HOMO-LUMO gap              2.543741901297 eV    ::
         ::.................................................::
         :: SCC energy              -159.410987086773 Eh    ::
         :: -> isotropic ES            0.501435934320 Eh    ::
         :: -> anisotropic ES         -0.046516276827 Eh    ::
         :: -> anisotropic XC          0.022734977309 Eh    ::
         :: -> dispersion             -0.112260242830 Eh    ::
         :: repulsion energy           1.408121850399 Eh    ::
         :: add. restraining           0.000000000000 Eh    ::
         :: total charge              -0.000000000000 e     ::
         :::::::::::::::::::::::::::::::::::::::::::::::::::::


Property printout bound to 'properties.out'

           -------------------------------------------------
          | TOTAL ENERGY             -157.999990089580 Eh   |
          | GRADIENT NORM               0.012589992599 Eh/ |
          | HOMO-LUMO GAP               2.543741901297 eV   |
           -------------------------------------------------

------------------------------------------------------------------------
 * finished run on 2023/12/04 at 15:32:31.749     
------------------------------------------------------------------------
 total:
 * wall-time:     0 d,  0 h,  0 min,  0.271 sec
 *  cpu-time:     0 d,  0 h,  0 min,  0.268 sec
 * ratio c/w:     0.987 speedup
 SCF:
 * wall-time:     0 d,  0 h,  0 min,  0.233 sec
 *  cpu-time:     0 d,  0 h,  0 min,  0.232 sec
 * ratio c/w:     0.996 speedup


-------------------------   --------------------
FINAL SINGLE POINT ENERGY      -157.999990089580
-------------------------   --------------------

------------------------------------------------------------------------------
                         ORCA GEOMETRY RELAXATION STEP
------------------------------------------------------------------------------

Reading the OPT-File                    .... done
Getting information on internals        .... done
Copying old internal coords+grads       .... done
Making the new internal coordinates     .... (new redundants).... done
Validating the new internal coordinates .... (new redundants).... done
Calculating the B-matrix                .... done
Calculating the G,G- and P matrices     .... done
Transforming gradient to internals      .... done
Projecting the internal gradient        .... done
Number of atoms                         ....  78
Number of internal coordinates          .... 437
Current Energy                          ....  -157.999990090 Eh
Current gradient norm                   ....     0.012589993 Eh/bohr
Maximum allowed component of the step   ....  0.300
Current trust radius                    ....  0.300
Evaluating the initial hessian          ....  (Almloef) done
Projecting the Hessian                  .... done
Forming the augmented Hessian           .... done
Diagonalizing the augmented Hessian     .... done
Last element of RFO vector              ....  0.999260505
Lowest eigenvalues of augmented Hessian:
 -0.000507261  0.000357680  0.000745202  0.001115331  0.010936941
Length of the computed step             ....  0.038478993
The final length of the internal step   ....  0.038478993
Converting the step to cartesian space:
 Initial RMS(Int)=    0.0018406999
Transforming coordinates:
 Iter   0:  RMS(Cart)=    0.0112223947 RMS(Int)=    0.0018404570
 Iter   1:  RMS(Cart)=    0.0000501091 RMS(Int)=    0.0000104034
 Iter   2:  RMS(Cart)=    0.0000001614 RMS(Int)=    0.0000000487
 Iter   3:  RMS(Cart)=    0.0000000010 RMS(Int)=    0.0000000004
done
Storing new coordinates                 .... done

                                .--------------------.
          ----------------------|Geometry convergence|-------------------------
          Item                value                   Tolerance       Converged
          ---------------------------------------------------------------------
          RMS gradient        0.0007181441            0.0001000000      NO
          MAX gradient        0.0064323322            0.0003000000      NO
          RMS step            0.0018406999            0.0020000000      YES
          MAX step            0.0188596152            0.0040000000      NO
          ........................................................
          Max(Bonds)      0.0100      Max(Angles)    0.31
          Max(Dihed)        0.21      Max(Improp)    0.00
          ---------------------------------------------------------------------

The optimization has not yet converged - more geometry cycles are needed


    ---------------------------------------------------------------------------
                         Redundant Internal Coordinates
                            (Angstroem and degrees)

        Definition                    Value    dE/dq     Step     New-Value
    ----------------------------------------------------------------------------
     1. B(C   1,N   0)                1.3651  0.001096 -0.0009    1.3641   
     2. B(O   2,C   1)                1.2199  0.003680 -0.0019    1.2181   
     3. B(C   3,C   1)                1.4758  0.000665 -0.0008    1.4751   
     4. B(C   4,C   3)                1.3446  0.005498 -0.0039    1.3406   
     5. B(N   5,C   4)                1.3792  0.001639 -0.0015    1.3778   
     6. B(C   6,N   5)                1.4362  0.001377 -0.0016    1.4347   
     7. B(O   7,C   6)                1.4256  0.001436 -0.0016    1.4240   
     8. B(C   8,O   7)                1.4130  0.000735 -0.0008    1.4122   
     9. B(C   9,C   8)                1.5338  0.000404 -0.0006    1.5332   
    10. B(O  10,C   9)                1.4202  0.000539 -0.0006    1.4196   
    11. B(P  11,O  10)                1.5911  0.000201 -0.0001    1.5910   
    12. B(O  12,P  11)                1.4701  0.000298 -0.0001    1.4700   
    13. B(O  13,P  11)                1.5534  0.000245 -0.0001    1.5533   
    14. B(O  14,P  11)                1.5948  0.000036 -0.0000    1.5948   
    15. B(P  15,O  14)                1.6145  0.000134 -0.0001    1.6145   
    16. B(O  16,P  15)                1.4610  0.000044 -0.0000    1.4610   
    17. B(O  17,P  15)                1.5577  0.000181 -0.0001    1.5576   
    18. B(O  18,P  15)                1.5875  0.000202 -0.0001    1.5874   
    19. B(C  19,O  18)                1.4311  0.000170 -0.0002    1.4309   
    20. B(C  20,C  19)                1.5503  0.000191 -0.0003    1.5500   
    21. B(O  21,C  20)                1.4242  0.000089 -0.0001    1.4241   
    22. B(C  22,O  21)                1.4150  0.000138 -0.0001    1.4149   
    23. B(N  23,C  22)                1.4290  0.000043 -0.0000    1.4290   
    24. B(C  24,N  23)                1.3728  0.000116 -0.0001    1.3727   
    25. B(N  25,C  24)                1.2933  0.000113 -0.0001    1.2933   
    26. B(C  26,N  25)                1.3737  0.000258 -0.0002    1.3735   
    27. B(C  27,C  26)                1.4073  0.000217 -0.0002    1.4071   
    28. B(N  28,C  27)                1.3414  0.000040 -0.0000    1.3414   
    29. B(N  29,C  27)                1.3369  0.000248 -0.0002    1.3367   
    30. B(C  30,N  29)                1.3204  0.000026 -0.0000    1.3204   
    31. B(N  31,C  30)                1.3213  0.000203 -0.0002    1.3212   
    32. B(C  32,N  31)                1.3330  0.000261 -0.0002    1.3328   
    33. B(C  32,C  26)                1.4042  0.000042 -0.0000    1.4042   
    34. B(C  32,N  23)                1.3702  0.000257 -0.0002    1.3700   
    35. B(C  33,C  22)                1.5389  0.000146 -0.0002    1.5386   
    36. B(O  34,C  33)                1.4069  0.000251 -0.0003    1.4067   
    37. B(P  35,O  34)                1.6084  0.000189 -0.0001    1.6083   
    38. B(O  36,P  35)                1.4867  0.000050 -0.0000    1.4867   
    39. B(O  37,P  35)                1.5577  0.000197 -0.0001    1.5576   
    40. B(O  38,P  35)                1.5698  0.000183 -0.0001    1.5697   
    41. B(C  39,C  33)                1.5346  0.000049 -0.0001    1.5346   
    42. B(C  39,C  20)                1.5239  0.000152 -0.0002    1.5237   
    43. B(O  40,C  39)                1.4018  0.000178 -0.0002    1.4017   
    44. B(C  41,C   8)                1.5484  0.000212 -0.0003    1.5482   
    45. B(O  42,C  41)                1.3971  0.000059 -0.0001    1.3971   
    46. B(C  43,C  41)                1.5486  0.000164 -0.0002    1.5484   
    47. B(C  43,C   6)                1.5405  0.000280 -0.0004    1.5401   
    48. B(O  44,C  43)                1.3956  0.000375 -0.0004    1.3952   
    49. B(C  45,N   5)                1.3969  0.000565 -0.0005    1.3964   
    50. B(C  46,C  45)                1.3305  0.005601 -0.0038    1.3267   
    51. B(C  47,C  46)                1.5049  0.005123 -0.0067    1.4983   
    52. B(C  47,C   3)                1.5140  0.002116 -0.0028    1.5112   
    53. B(H  48,N   0)                1.0069  0.000366 -0.0004    1.0065   
    54. B(H  49,N   0)                1.0039  0.001475 -0.0018    1.0021   
    55. B(H  50,C   4)                1.0812  0.001048 -0.0015    1.0797   
    56. B(H  51,C   6)                1.0979  0.000537 -0.0008    1.0971   
    57. B(H  52,C   8)                1.0997  0.000332 -0.0005    1.0992   
    58. B(H  53,C   9)                1.0942  0.000082 -0.0001    1.0940   
    59. B(H  54,C   9)                1.0928  0.000217 -0.0003    1.0924   
    60. B(H  55,O  13)                0.9991  0.000060 -0.0001    0.9991   
    61. B(H  55,O  36)                1.6153  0.000021 -0.0001    1.6152   
    62. B(H  56,O  17)                0.9764  0.000027 -0.0000    0.9763   
    63. B(H  57,C  19)                1.0918  0.000124 -0.0002    1.0916   
    64. B(H  58,C  19)                1.0997  0.000020 -0.0000    1.0997   
    65. B(H  59,C  20)                1.0927  0.000063 -0.0001    1.0926   
    66. B(H  60,C  22)                1.1010  0.000136 -0.0002    1.1008   
    67. B(H  61,C  24)                1.0724  0.000168 -0.0002    1.0722   
    68. B(H  62,N  28)                1.0036  0.000144 -0.0002    1.0035   
    69. B(H  63,N  28)                1.0041  0.000133 -0.0002    1.0039   
    70. B(H  64,O  16)                3.4387  0.000002  0.0018    3.4405   
    71. B(H  64,C  30)                1.0812  0.000135 -0.0002    1.0811   
    72. B(H  65,C  33)                1.0929  0.000123 -0.0002    1.0927   
    73. B(H  66,O  37)                0.9799  0.000165 -0.0002    0.9797   
    74. B(H  67,O  38)                0.9561  0.000077 -0.0001    0.9560   
    75. B(H  68,C  39)                1.0821  0.000065 -0.0001    1.0820   
    76. B(H  69,H  54)                3.2556 -0.000007  0.0040    3.2595   
    77. B(H  69,O  40)                0.9668  0.000173 -0.0002    0.9666   
    78. B(H  70,C  41)                1.0968  0.000166 -0.0002    1.0966   
    79. B(H  71,O  42)                0.9726  0.000417 -0.0004    0.9721   
    80. B(H  72,C  43)                1.0995  0.000211 -0.0003    1.0991   
    81. B(H  73,O  44)                0.9706  0.000064 -0.0001    0.9705   
    82. B(H  74,C  45)                1.0824  0.003366 -0.0048    1.0776   
    83. B(H  75,H  55)                4.4450  0.000025  0.0011    4.4460   
    84. B(H  75,C  46)                1.0785  0.000225 -0.0003    1.0782   
    85. B(H  76,C  47)                1.1052  0.006432 -0.0100    1.0952   
    86. B(H  77,C  47)                1.1082  0.006313 -0.0099    1.0983   
    87. A(C   1,N   0,H  48)          116.60 -0.000260    0.04    116.64   
    88. A(H  48,N   0,H  49)          118.04  0.000029   -0.01    118.03   
    89. A(C   1,N   0,H  49)          122.71  0.000242   -0.04    122.67   
    90. A(N   0,C   1,O   2)          120.66  0.000494   -0.06    120.59   
    91. A(N   0,C   1,C   3)          117.38 -0.000582    0.08    117.46   
    92. A(O   2,C   1,C   3)          121.96  0.000088   -0.01    121.94   
    93. A(C   4,C   3,C  47)          121.35  0.000584   -0.09    121.26   
    94. A(C   1,C   3,C   4)          124.27  0.000266   -0.03    124.23   
    95. A(C   1,C   3,C  47)          114.33 -0.000850    0.13    114.46   
    96. A(C   3,C   4,H  50)          122.55  0.000165   -0.03    122.52   
    97. A(C   3,C   4,N   5)          123.86  0.000607   -0.09    123.77   
    98. A(N   5,C   4,H  50)          113.58 -0.000771    0.12    113.70   
    99. A(C   6,N   5,C  45)          121.17 -0.000451    0.05    121.22   
   100. A(C   4,N   5,C  45)          116.94 -0.000013    0.01    116.95   
   101. A(C   4,N   5,C   6)          119.41  0.000447   -0.05    119.36   
   102. A(O   7,C   6,H  51)          107.32 -0.000001   -0.01    107.31   
   103. A(O   7,C   6,C  43)          107.10  0.000092   -0.02    107.08   
   104. A(N   5,C   6,H  51)          107.82  0.000106   -0.00    107.82   
   105. A(N   5,C   6,O   7)          111.66  0.000071   -0.04    111.62   
   106. A(C  43,C   6,H  51)          108.44 -0.000085    0.05    108.48   
   107. A(N   5,C   6,C  43)          114.26 -0.000180    0.03    114.29   
   108. A(C   6,O   7,C   8)          112.18 -0.000522    0.07    112.25   
   109. A(O   7,C   8,H  52)          108.77 -0.000026   -0.01    108.76   
   110. A(O   7,C   8,C  41)          108.20  0.000168   -0.02    108.18   
   111. A(C   9,C   8,H  52)          109.06  0.000095    0.00    109.07   
   112. A(O   7,C   8,C   9)          108.72  0.000029   -0.03    108.69   
   113. A(C   9,C   8,C  41)          113.54 -0.000241    0.05    113.60   
   114. A(C  41,C   8,H  52)          108.44 -0.000019    0.01    108.45   
   115. A(H  53,C   9,H  54)          109.13 -0.000025    0.01    109.14   
   116. A(C   8,C   9,H  53)          109.66 -0.000082    0.02    109.68   
   117. A(O  10,C   9,H  54)          106.05  0.000027   -0.01    106.04   
   118. A(C   8,C   9,H  54)          109.41  0.000095   -0.02    109.38   
   119. A(C   8,C   9,O  10)          111.78 -0.000047    0.01    111.79   
   120. A(O  10,C   9,H  53)          110.72  0.000038   -0.01    110.71   
   121. A(C   9,O  10,P  11)          122.58 -0.000208    0.01    122.59   
   122. A(O  12,P  11,O  13)          117.98 -0.000015    0.00    117.98   
   123. A(O  10,P  11,O  12)          113.70  0.000005    0.00    113.70   
   124. A(O  10,P  11,O  13)          108.89  0.000015   -0.01    108.88   
   125. A(O  10,P  11,O  14)          101.37 -0.000015    0.00    101.37   
   126. A(O  13,P  11,O  14)          102.66  0.000048   -0.01    102.65   
   127. A(O  12,P  11,O  14)          110.41 -0.000036    0.01    110.42   
   128. A(P  11,O  13,H  55)          108.26  0.000033   -0.00    108.26   
   129. A(P  11,O  14,P  15)          127.13  0.000090   -0.01    127.13   
   130. A(O  17,P  15,O  18)          104.36  0.000033   -0.00    104.36   
   131. A(O  16,P  15,O  18)          117.16 -0.000017    0.00    117.16   
   132. A(O  14,P  15,O  18)          105.47 -0.000000   -0.00    105.47   
   133. A(O  16,P  15,O  17)          118.14 -0.000030    0.01    118.14   
   134. A(O  14,P  15,O  17)          103.96  0.000049   -0.00    103.95   
   135. A(O  14,P  15,O  16)          106.36 -0.000024    0.00    106.36   
   136. A(P  15,O  17,H  56)          112.65  0.000016   -0.00    112.65   
   137. A(P  15,O  18,C  19)          123.92  0.000011   -0.01    123.91   
   138. A(O  18,C  19,C  20)          113.75  0.000085   -0.03    113.73   
   139. A(C  20,C  19,H  58)          108.49  0.000012   -0.00    108.49   
   140. A(O  18,C  19,H  58)          110.24 -0.000053    0.01    110.25   
   141. A(C  20,C  19,H  57)          109.69 -0.000047    0.01    109.70   
   142. A(O  18,C  19,H  57)          105.38 -0.000000    0.00    105.39   
   143. A(H  57,C  19,H  58)          109.19 -0.000001    0.01    109.20   
   144. A(C  19,C  20,C  39)          110.84  0.000035   -0.02    110.82   
   145. A(O  21,C  20,C  39)          104.92 -0.000017    0.00    104.92   
   146. A(C  19,C  20,O  21)          110.33  0.000015   -0.00    110.33   
   147. A(C  39,C  20,H  59)          111.49 -0.000011    0.00    111.50   
   148. A(C  19,C  20,H  59)          111.78 -0.000015    0.01    111.78   
   149. A(O  21,C  20,H  59)          107.19 -0.000009    0.01    107.20   
   150. A(C  20,O  21,C  22)          110.54 -0.000023    0.00    110.55   
   151. A(N  23,C  22,H  60)          107.81  0.000002    0.00    107.82   
   152. A(O  21,C  22,H  60)          109.94 -0.000005    0.00    109.94   
   153. A(N  23,C  22,C  33)          113.10  0.000005   -0.00    113.09   
   154. A(O  21,C  22,C  33)          104.77  0.000030   -0.01    104.76   
   155. A(C  33,C  22,H  60)          110.34 -0.000013    0.00    110.34   
[...]
181:   1327.66   0.004993   25.23  0.001174  ( 0.025156 -0.013663  0.018817)
182:   1327.75   0.007630   38.56  0.001793  ( 0.000004  0.042316  0.001654)
183:   1332.31   0.001325    6.70  0.000310  (-0.016261  0.003102 -0.006024)
184:   1343.07   0.014626   73.91  0.003398  (-0.055812 -0.004002 -0.016354)
185:   1346.31   0.000517    2.61  0.000120  (-0.007593 -0.007347  0.002859)
186:   1350.09   0.010987   55.52  0.002540  (-0.005402  0.050104  0.000078)
187:   1360.39   0.000171    0.86  0.000039  (-0.003496 -0.004559 -0.002499)
188:   1369.76   0.007845   39.65  0.001787  ( 0.011220 -0.033349 -0.023436)
189:   1370.37   0.002147   10.85  0.000489  ( 0.010568  0.016290 -0.010571)
190:   1378.24   0.023406  118.28  0.005300  (-0.047833 -0.012691 -0.053391)
191:   1399.23   0.027469  138.82  0.006126  (-0.071082  0.027789 -0.017360)
192:   1421.40   0.022991  116.19  0.005048  ( 0.069484 -0.005400  0.013803)
193:   1452.59   0.002646   13.37  0.000568  (-0.001641  0.021388 -0.010408)
194:   1453.72   0.024288  122.74  0.005214  (-0.034606  0.033939 -0.053519)
195:   1453.84   0.001593    8.05  0.000342  ( 0.010863 -0.011745 -0.009272)
196:   1479.88   0.000838    4.24  0.000177  ( 0.010452  0.003889  0.007240)
197:   1501.38   0.030873  156.02  0.006417  (-0.053535 -0.058818 -0.009561)
198:   1525.21   0.002824   14.27  0.000578  ( 0.016672  0.016191  0.006146)
199:   1571.36   0.009509   48.05  0.001888  ( 0.012411  0.041429  0.004236)
200:   1602.92   0.184659  933.19  0.035950  (-0.184364  0.021127 -0.038907)
201:   1673.67   0.077105  389.66  0.014377  ( 0.043775 -0.111557  0.003918)
202:   1712.37   0.057868  292.44  0.010546  (-0.000604  0.069490  0.075608)
203:   1721.39   0.021626  109.29  0.003920  ( 0.009231  0.050446  0.035922)
204:   2780.74   0.256409  1295.79  0.028775  (-0.129655 -0.106305 -0.025764)
205:   2850.54   0.033322  168.39  0.003648  ( 0.054407  0.016869  0.020081)
206:   2878.52   0.008868   44.81  0.000961  (-0.025017 -0.017440  0.005600)
207:   2881.92   0.003509   17.73  0.000380  (-0.000372  0.019480 -0.000616)
208:   2885.58   0.012980   65.60  0.001404  (-0.016082  0.010610  0.032133)
209:   2915.05   0.003624   18.32  0.000388  (-0.012389  0.006292  0.013961)
210:   2925.71   0.006709   33.91  0.000716  ( 0.004865  0.015301  0.021397)
211:   2933.82   0.004782   24.16  0.000509  ( 0.012938 -0.012016 -0.014030)
212:   2935.03   0.010243   51.77  0.001089  ( 0.018320  0.023706  0.013839)
213:   2940.59   0.010772   54.44  0.001143  ( 0.006249  0.022719  0.024248)
214:   2964.43   0.002054   10.38  0.000216  (-0.013917  0.001084  0.004622)
215:   2969.56   0.003268   16.52  0.000343  ( 0.000098 -0.014785  0.011172)
216:   2974.33   0.005157   26.06  0.000541  ( 0.013705  0.000134 -0.018794)
217:   2975.40   0.001154    5.83  0.000121  (-0.000025  0.000733  0.010978)
218:   3072.84   0.006428   32.48  0.000653  (-0.013976  0.000749 -0.021374)
219:   3074.06   0.002156   10.89  0.000219  (-0.001611 -0.014462  0.002661)
220:   3091.35   0.000756    3.82  0.000076  ( 0.005187  0.000115  0.007029)
221:   3096.66   0.159135  804.20  0.016037  ( 0.001386 -0.090743 -0.088320)
222:   3114.24   0.012608   63.72  0.001263  ( 0.020371 -0.015157  0.024874)
223:   3129.35   0.001523    7.70  0.000152  (-0.011622 -0.001428 -0.003846)
224:   3165.97   0.000383    1.94  0.000038  ( 0.002904  0.005347  0.000846)
225:   3187.23   0.131851  666.32  0.012910  (-0.110406  0.008797  0.025353)
226:   3375.83   0.084047  424.74  0.007769  ( 0.086259 -0.009538  0.015422)
227:   3429.84   0.017078   86.30  0.001554  (-0.027208  0.027133  0.008793)
228:   3478.02   0.000683    3.45  0.000061  (-0.006229  0.002741 -0.003863)
229:   3490.14   0.018396   92.97  0.001645  (-0.040493 -0.000589 -0.002187)
230:   3493.16   0.010943   55.30  0.000978  (-0.015351 -0.000734  0.027229)
231:   3556.13   0.000026    0.13  0.000002  ( 0.000895  0.000518 -0.001087)
232:   3568.30   0.003546   17.92  0.000310  ( 0.001396 -0.016654 -0.005553)
233:   3619.36   0.011737   59.31  0.001012  (-0.025572  0.016657  0.008978)

* The epsilon (eps) is given for a Dirac delta lineshape.
** The dipole moment derivative (T) already includes vibrational overlap.

The first frequency considered to be a vibration is 6
The total number of vibrations considered is 228


--------------------------
THERMOCHEMISTRY AT 298.15K
--------------------------

Temperature         ... 298.15 K
Pressure            ... 1.00 atm
Total Mass          ... 745.43 AMU

Throughout the following assumptions are being made:
  (1) The electronic state is orbitally nondegenerate
  (2) There are no thermally accessible electronically excited states
  (3) Hindered rotations indicated by low frequency modes are not
      treated as such but are treated as vibrations and this may
      cause some error
  (4) All equations used are the standard statistical mechanics
      equations for an ideal gas
  (5) All vibrations are strictly harmonic

freq.       5.33  E(vib)   ...       0.58 
freq.       7.57  E(vib)   ...       0.58 
freq.      12.86  E(vib)   ...       0.57 
freq.      16.70  E(vib)   ...       0.57 
freq.      19.50  E(vib)   ...       0.57 
freq.      28.15  E(vib)   ...       0.55 
freq.      30.35  E(vib)   ...       0.55 
freq.      36.61  E(vib)   ...       0.54 
freq.      40.46  E(vib)   ...       0.54 
freq.      46.23  E(vib)   ...       0.53 
freq.      62.57  E(vib)   ...       0.51 
freq.      65.25  E(vib)   ...       0.50 
freq.      72.62  E(vib)   ...       0.49 
freq.      77.00  E(vib)   ...       0.49 
freq.      84.60  E(vib)   ...       0.48 
freq.      98.84  E(vib)   ...       0.46 
freq.     106.01  E(vib)   ...       0.45 
freq.     108.65  E(vib)   ...       0.45 
freq.     112.83  E(vib)   ...       0.45 
freq.     115.83  E(vib)   ...       0.44 
freq.     122.15  E(vib)   ...       0.43 
freq.     130.09  E(vib)   ...       0.43 
freq.     132.87  E(vib)   ...       0.42 
freq.     143.35  E(vib)   ...       0.41 
freq.     149.94  E(vib)   ...       0.40 
freq.     160.72  E(vib)   ...       0.39 
freq.     166.87  E(vib)   ...       0.39 
freq.     171.21  E(vib)   ...       0.38 
freq.     182.12  E(vib)   ...       0.37 
freq.     187.51  E(vib)   ...       0.36 
freq.     192.59  E(vib)   ...       0.36 
freq.     203.38  E(vib)   ...       0.35 
freq.     210.89  E(vib)   ...       0.34 
freq.     213.60  E(vib)   ...       0.34 
freq.     221.65  E(vib)   ...       0.33 
freq.     230.73  E(vib)   ...       0.32 
freq.     236.38  E(vib)   ...       0.32 
freq.     239.70  E(vib)   ...       0.31 
freq.     260.55  E(vib)   ...       0.30 
freq.     268.65  E(vib)   ...       0.29 
freq.     283.00  E(vib)   ...       0.28 
freq.     285.70  E(vib)   ...       0.28 
freq.     293.00  E(vib)   ...       0.27 
freq.     299.59  E(vib)   ...       0.26 
freq.     305.13  E(vib)   ...       0.26 
freq.     306.92  E(vib)   ...       0.26 
freq.     320.04  E(vib)   ...       0.25 
freq.     322.80  E(vib)   ...       0.25 
freq.     339.80  E(vib)   ...       0.23 
freq.     342.66  E(vib)   ...       0.23 
freq.     347.01  E(vib)   ...       0.23 
freq.     361.32  E(vib)   ...       0.22 
freq.     365.68  E(vib)   ...       0.22 
freq.     370.63  E(vib)   ...       0.21 
freq.     374.81  E(vib)   ...       0.21 
freq.     384.71  E(vib)   ...       0.20 
freq.     388.79  E(vib)   ...       0.20 
freq.     393.04  E(vib)   ...       0.20 
freq.     397.86  E(vib)   ...       0.20 
freq.     399.22  E(vib)   ...       0.19 
freq.     407.34  E(vib)   ...       0.19 
freq.     420.97  E(vib)   ...       0.18 
freq.     440.76  E(vib)   ...       0.17 
freq.     444.78  E(vib)   ...       0.17 
freq.     459.05  E(vib)   ...       0.16 
freq.     464.95  E(vib)   ...       0.16 
freq.     474.75  E(vib)   ...       0.15 
freq.     475.73  E(vib)   ...       0.15 
freq.     490.20  E(vib)   ...       0.15 
freq.     494.65  E(vib)   ...       0.14 
freq.     506.21  E(vib)   ...       0.14 
freq.     507.70  E(vib)   ...       0.14 
freq.     515.89  E(vib)   ...       0.13 
freq.     519.06  E(vib)   ...       0.13 
freq.     526.13  E(vib)   ...       0.13 
freq.     535.38  E(vib)   ...       0.13 
freq.     541.83  E(vib)   ...       0.12 
freq.     556.34  E(vib)   ...       0.12 
freq.     569.51  E(vib)   ...       0.11 
freq.     590.16  E(vib)   ...       0.10 
freq.     590.56  E(vib)   ...       0.10 
freq.     596.50  E(vib)   ...       0.10 
freq.     606.85  E(vib)   ...       0.10 
freq.     607.88  E(vib)   ...       0.10 
freq.     625.11  E(vib)   ...       0.09 
freq.     632.33  E(vib)   ...       0.09 
freq.     643.59  E(vib)   ...       0.09 
freq.     663.94  E(vib)   ...       0.08 
freq.     682.98  E(vib)   ...       0.08 
freq.     689.64  E(vib)   ...       0.07 
freq.     709.53  E(vib)   ...       0.07 
freq.     733.52  E(vib)   ...       0.06 
freq.     735.38  E(vib)   ...       0.06 
freq.     738.19  E(vib)   ...       0.06 
freq.     742.22  E(vib)   ...       0.06 
freq.     751.10  E(vib)   ...       0.06 
freq.     762.04  E(vib)   ...       0.06 
freq.     765.16  E(vib)   ...       0.06 
freq.     782.86  E(vib)   ...       0.05 
freq.     795.66  E(vib)   ...       0.05 
freq.     812.76  E(vib)   ...       0.05 
freq.     832.00  E(vib)   ...       0.04 
freq.     832.51  E(vib)   ...       0.04 
freq.     836.84  E(vib)   ...       0.04 
freq.     841.73  E(vib)   ...       0.04 
freq.     862.75  E(vib)   ...       0.04 
freq.     877.06  E(vib)   ...       0.04 
freq.     886.21  E(vib)   ...       0.04 
freq.     886.84  E(vib)   ...       0.04 
freq.     887.97  E(vib)   ...       0.04 
freq.     892.23  E(vib)   ...       0.03 
freq.     907.38  E(vib)   ...       0.03 
freq.     909.94  E(vib)   ...       0.03 
freq.     912.33  E(vib)   ...       0.03 
freq.     918.63  E(vib)   ...       0.03 
freq.     929.18  E(vib)   ...       0.03 
freq.     929.96  E(vib)   ...       0.03 
freq.     932.75  E(vib)   ...       0.03 
freq.     949.62  E(vib)   ...       0.03 
freq.     952.38  E(vib)   ...       0.03 
freq.     956.18  E(vib)   ...       0.03 
freq.     985.74  E(vib)   ...       0.02 
freq.     994.88  E(vib)   ...       0.02 
freq.    1007.15  E(vib)   ...       0.02 
freq.    1015.20  E(vib)   ...       0.02 
freq.    1016.51  E(vib)   ...       0.02 
freq.    1017.64  E(vib)   ...       0.02 
freq.    1022.50  E(vib)   ...       0.02 
freq.    1024.96  E(vib)   ...       0.02 
freq.    1027.69  E(vib)   ...       0.02 
freq.    1041.69  E(vib)   ...       0.02 
freq.    1046.13  E(vib)   ...       0.02 
freq.    1058.25  E(vib)   ...       0.02 
freq.    1064.35  E(vib)   ...       0.02 
freq.    1070.40  E(vib)   ...       0.02 
freq.    1080.33  E(vib)   ...       0.02 
freq.    1093.32  E(vib)   ...       0.02 
freq.    1094.56  E(vib)   ...       0.02 
freq.    1099.54  E(vib)   ...       0.02 
freq.    1105.65  E(vib)   ...       0.02 
freq.    1117.22  E(vib)   ...       0.01 
freq.    1120.10  E(vib)   ...       0.01 
freq.    1142.43  E(vib)   ...       0.01 
freq.    1143.63  E(vib)   ...       0.01 
freq.    1150.22  E(vib)   ...       0.01 
freq.    1164.41  E(vib)   ...       0.01 
freq.    1166.53  E(vib)   ...       0.01 
freq.    1167.80  E(vib)   ...       0.01 
freq.    1180.53  E(vib)   ...       0.01 
freq.    1183.18  E(vib)   ...       0.01 
freq.    1189.83  E(vib)   ...       0.01 
freq.    1190.85  E(vib)   ...       0.01 
freq.    1198.38  E(vib)   ...       0.01 
freq.    1208.32  E(vib)   ...       0.01 
freq.    1211.76  E(vib)   ...       0.01 
freq.    1225.23  E(vib)   ...       0.01 
freq.    1233.24  E(vib)   ...       0.01 
freq.    1234.12  E(vib)   ...       0.01 
freq.    1244.28  E(vib)   ...       0.01 
freq.    1250.26  E(vib)   ...       0.01 
freq.    1253.02  E(vib)   ...       0.01 
freq.    1256.77  E(vib)   ...       0.01 
freq.    1263.70  E(vib)   ...       0.01 
freq.    1268.61  E(vib)   ...       0.01 
freq.    1268.88  E(vib)   ...       0.01 
freq.    1272.28  E(vib)   ...       0.01 
freq.    1275.29  E(vib)   ...       0.01 
freq.    1275.90  E(vib)   ...       0.01 
freq.    1281.35  E(vib)   ...       0.01 
freq.    1288.86  E(vib)   ...       0.01 
freq.    1300.09  E(vib)   ...       0.01 
freq.    1302.95  E(vib)   ...       0.01 
freq.    1308.24  E(vib)   ...       0.01 
freq.    1324.55  E(vib)   ...       0.01 
freq.    1324.87  E(vib)   ...       0.01 
freq.    1327.66  E(vib)   ...       0.01 
freq.    1327.75  E(vib)   ...       0.01 
freq.    1332.31  E(vib)   ...       0.01 
freq.    1343.07  E(vib)   ...       0.01 
freq.    1346.31  E(vib)   ...       0.01 
freq.    1350.09  E(vib)   ...       0.01 
freq.    1360.39  E(vib)   ...       0.01 
freq.    1369.76  E(vib)   ...       0.01 
freq.    1370.37  E(vib)   ...       0.01 
freq.    1378.24  E(vib)   ...       0.01 
freq.    1399.23  E(vib)   ...       0.00 
freq.    1421.40  E(vib)   ...       0.00 
freq.    1452.59  E(vib)   ...       0.00 
freq.    1453.72  E(vib)   ...       0.00 
freq.    1453.84  E(vib)   ...       0.00 
freq.    1479.88  E(vib)   ...       0.00 
freq.    1501.38  E(vib)   ...       0.00 
freq.    1525.21  E(vib)   ...       0.00 
freq.    1571.36  E(vib)   ...       0.00 
freq.    1602.92  E(vib)   ...       0.00 
freq.    1673.67  E(vib)   ...       0.00 
freq.    1712.37  E(vib)   ...       0.00 
freq.    1721.39  E(vib)   ...       0.00 
freq.    2780.74  E(vib)   ...       0.00 
freq.    2850.54  E(vib)   ...       0.00 
freq.    2878.52  E(vib)   ...       0.00 
freq.    2881.92  E(vib)   ...       0.00 
freq.    2885.58  E(vib)   ...       0.00 
freq.    2915.05  E(vib)   ...       0.00 
freq.    2925.71  E(vib)   ...       0.00 
freq.    2933.82  E(vib)   ...       0.00 
freq.    2935.03  E(vib)   ...       0.00 
freq.    2940.59  E(vib)   ...       0.00 
freq.    2964.43  E(vib)   ...       0.00 
freq.    2969.56  E(vib)   ...       0.00 
freq.    2974.33  E(vib)   ...       0.00 
freq.    2975.40  E(vib)   ...       0.00 
freq.    3072.84  E(vib)   ...       0.00 
freq.    3074.06  E(vib)   ...       0.00 
freq.    3091.35  E(vib)   ...       0.00 
freq.    3096.66  E(vib)   ...       0.00 
freq.    3114.24  E(vib)   ...       0.00 
freq.    3129.35  E(vib)   ...       0.00 
freq.    3165.97  E(vib)   ...       0.00 
freq.    3187.23  E(vib)   ...       0.00 
freq.    3375.83  E(vib)   ...       0.00 
freq.    3429.84  E(vib)   ...       0.00 
freq.    3478.02  E(vib)   ...       0.00 
freq.    3490.14  E(vib)   ...       0.00 
freq.    3493.16  E(vib)   ...       0.00 
freq.    3556.13  E(vib)   ...       0.00 
freq.    3568.30  E(vib)   ...       0.00 
freq.    3619.36  E(vib)   ...       0.00 

------------
INNER ENERGY
------------

The inner energy is: U= E(el) + E(ZPE) + E(vib) + E(rot) + E(trans)
    E(el)   - is the total energy from the electronic structure calculation
              = E(kin-el) + E(nuc-el) + E(el-el) + E(nuc-nuc)
    E(ZPE)  - the the zero temperature vibrational energy from the frequency calculation
    E(vib)  - the the finite temperature correction to E(ZPE) due to population
              of excited vibrational states
    E(rot)  - is the rotational thermal energy
    E(trans)- is the translational thermal energy

Summary of contributions to the inner energy U:
Electronic energy                ...   -158.00039217 Eh
Zero point energy                ...      0.55696893 Eh     349.50 kcal/mol
Thermal vibrational correction   ...      0.04479875 Eh      28.11 kcal/mol
Thermal rotational correction    ...      0.00141627 Eh       0.89 kcal/mol
Thermal translational correction ...      0.00141627 Eh       0.89 kcal/mol
-----------------------------------------------------------------------
Total thermal energy                   -157.39579195 Eh


Summary of corrections to the electronic energy:
(perhaps to be used in another calculation)
Total thermal correction                  0.04763130 Eh      29.89 kcal/mol
Non-thermal (ZPE) correction              0.55696893 Eh     349.50 kcal/mol
-----------------------------------------------------------------------
Total correction                          0.60460022 Eh     379.39 kcal/mol


--------
ENTHALPY
--------

The enthalpy is H = U + kB*T
                kB is Boltzmann's constant
Total free energy                 ...   -157.39579195 Eh 
Thermal Enthalpy correction       ...      0.00094421 Eh       0.59 kcal/mol
-----------------------------------------------------------------------
Total Enthalpy                    ...   -157.39484774 Eh


Note: Only C1 symmetry has been detected, increase convergence thresholds 
      if your molecule has a higher symmetry. Symmetry factor of 1.0 is   
      used for the rotational entropy correction. 
 

Note: Rotational entropy computed according to Herzberg 
Infrared and Raman Spectra, Chapter V,1, Van Nostrand Reinhold, 1945 
Point Group:  C1, Symmetry Number:   1  
Rotational constants in cm-1:     0.003748     0.001024     0.000911 

Vibrational entropy computed according to the QRRHO of S. Grimme
Chem.Eur.J. 2012 18 9955


-------
ENTROPY
-------

The entropy contributions are T*S = T*(S(el)+S(vib)+S(rot)+S(trans))
     S(el)   - electronic entropy
     S(vib)  - vibrational entropy
     S(rot)  - rotational entropy
     S(trans)- translational entropy
The entropies will be listed as multiplied by the temperature to get
units of energy

Electronic entropy                ...      0.00000000 Eh      0.00 kcal/mol
Vibrational entropy               ...      0.08197896 Eh     51.44 kcal/mol
Rotational entropy                ...      0.01870323 Eh     11.74 kcal/mol
Translational entropy             ...      0.02171623 Eh     13.63 kcal/mol
-----------------------------------------------------------------------
Final entropy term                ...      0.12239842 Eh     76.81 kcal/mol

In case the symmetry of your molecule has not been determined correctly
or in case you have a reason to use a different symmetry number we print 
out the resulting rotational entropy values for sn=1,12 :
 --------------------------------------------------------
|  sn= 1 | S(rot)=       0.01870323 Eh     11.74 kcal/mol|
|  sn= 2 | S(rot)=       0.01804877 Eh     11.33 kcal/mol|
|  sn= 3 | S(rot)=       0.01766594 Eh     11.09 kcal/mol|
|  sn= 4 | S(rot)=       0.01739431 Eh     10.92 kcal/mol|
|  sn= 5 | S(rot)=       0.01718363 Eh     10.78 kcal/mol|
|  sn= 6 | S(rot)=       0.01701148 Eh     10.67 kcal/mol|
|  sn= 7 | S(rot)=       0.01686594 Eh     10.58 kcal/mol|
|  sn= 8 | S(rot)=       0.01673986 Eh     10.50 kcal/mol|
|  sn= 9 | S(rot)=       0.01662865 Eh     10.43 kcal/mol|
|  sn=10 | S(rot)=       0.01652917 Eh     10.37 kcal/mol|
|  sn=11 | S(rot)=       0.01643918 Eh     10.32 kcal/mol|
|  sn=12 | S(rot)=       0.01635702 Eh     10.26 kcal/mol|
 --------------------------------------------------------


-------------------
GIBBS FREE ENERGY
-------------------

The Gibbs free energy is G = H - T*S

Total enthalpy                    ...   -157.39484774 Eh 
Total entropy correction          ...     -0.12239842 Eh    -76.81 kcal/mol
-----------------------------------------------------------------------
Final Gibbs free energy         ...   -157.51724616 Eh

For completeness - the Gibbs free energy minus the electronic energy
G-E(el)                           ...      0.48314601 Eh    303.18 kcal/mol



Timings for individual modules:

Sum of individual times         ...     1301.294 sec (=  21.688 min)
Geometry relaxation             ...       15.262 sec (=   0.254 min)   1.2 %
Numerical frequency calculation ...     1275.447 sec (=  21.257 min)  98.0 %
XTB module                      ...       10.585 sec (=   0.176 min)   0.8 %
                             ****ORCA TERMINATED NORMALLY****
TOTAL RUN TIME: 0 days 0 hours 21 minutes 51 seconds 391 msec
