
                                 *****************
                                 * O   R   C   A *
                                 *****************

                                            #,                                       
                                            ###                                      
                                            ####                                     
                                            #####                                    
                                            ######                                   
                                           ########,                                 
                                     ,,################,,,,,                         
                               ,,#################################,,                 
                          ,,##########################################,,             
                       ,#########################################, ''#####,          
                    ,#############################################,,   '####,        
                  ,##################################################,,,,####,       
                ,###########''''           ''''###############################       
              ,#####''   ,,,,##########,,,,          '''####'''          '####       
            ,##' ,,,,###########################,,,                        '##       
           ' ,,###''''                  '''############,,,                           
         ,,##''                                '''############,,,,        ,,,,,,###''
      ,#''                                            '''#######################'''  
     '                                                          ''''####''''         
             ,#######,   #######,   ,#######,      ##                                
            ,#'     '#,  ##    ##  ,#'     '#,    #''#        ######   ,####,        
            ##       ##  ##   ,#'  ##            #'  '#       #        #'  '#        
            ##       ##  #######   ##           ,######,      #####,   #    #        
            '#,     ,#'  ##    ##  '#,     ,#' ,#      #,         ##   #,  ,#        
             '#######'   ##     ##  '#######'  #'      '#     #####' # '####'        



                  #######################################################
                  #                        -***-                        #
                  #          Department of theory and spectroscopy      #
                  #    Directorship and core code : Frank Neese         #
                  #        Max Planck Institute fuer Kohlenforschung    #
                  #                Kaiser Wilhelm Platz 1               #
                  #                 D-45470 Muelheim/Ruhr               #
                  #                      Germany                        #
                  #                                                     #
                  #                  All rights reserved                #
                  #                        -***-                        #
                  #######################################################


                         Program Version 5.0.3 -  RELEASE  -


 With contributions from (in alphabetic order):
   Daniel Aravena         : Magnetic Suceptibility
   Michael Atanasov       : Ab Initio Ligand Field Theory (pilot matlab implementation)
   Alexander A. Auer      : GIAO ZORA, VPT2 properties, NMR spectrum
   Ute Becker             : Parallelization
   Giovanni Bistoni       : ED, misc. LED, open-shell LED, HFLD
   Martin Brehm           : Molecular dynamics
   Dmytro Bykov           : SCF Hessian
   Vijay G. Chilkuri      : MRCI spin determinant printing, contributions to CSF-ICE
   Dipayan Datta          : RHF DLPNO-CCSD density
   Achintya Kumar Dutta   : EOM-CC, STEOM-CC
   Dmitry Ganyushin       : Spin-Orbit,Spin-Spin,Magnetic field MRCI
   Miquel Garcia          : C-PCM and meta-GGA Hessian, CC/C-PCM, Gaussian charge scheme
   Yang Guo               : DLPNO-NEVPT2, F12-NEVPT2, CIM, IAO-localization
   Andreas Hansen         : Spin unrestricted coupled pair/coupled cluster methods
   Benjamin Helmich-Paris : MC-RPA, TRAH-SCF, COSX integrals
   Lee Huntington         : MR-EOM, pCC
   Robert Izsak           : Overlap fitted RIJCOSX, COSX-SCS-MP3, EOM
   Marcus Kettner         : VPT2
   Christian Kollmar      : KDIIS, OOCD, Brueckner-CCSD(T), CCSD density, CASPT2, CASPT2-K
   Simone Kossmann        : Meta GGA functionals, TD-DFT gradient, OOMP2, MP2 Hessian
   Martin Krupicka        : Initial AUTO-CI
   Lucas Lang             : DCDCAS
   Marvin Lechner         : AUTO-CI (C++ implementation), FIC-MRCC
   Dagmar Lenk            : GEPOL surface, SMD
   Dimitrios Liakos       : Extrapolation schemes; Compound Job, initial MDCI parallelization
   Dimitrios Manganas     : Further ROCIS development; embedding schemes
   Dimitrios Pantazis     : SARC Basis sets
   Anastasios Papadopoulos: AUTO-CI, single reference methods and gradients
   Taras Petrenko         : DFT Hessian,TD-DFT gradient, ASA, ECA, R-Raman, ABS, FL, XAS/XES, NRVS
   Peter Pinski           : DLPNO-MP2, DLPNO-MP2 Gradient
   Christoph Reimann      : Effective Core Potentials
   Marius Retegan         : Local ZFS, SOC
   Christoph Riplinger    : Optimizer, TS searches, QM/MM, DLPNO-CCSD(T), (RO)-DLPNO pert. Triples
   Tobias Risthaus        : Range-separated hybrids, TD-DFT gradient, RPA, STAB
   Michael Roemelt        : Original ROCIS implementation
   Masaaki Saitow         : Open-shell DLPNO-CCSD energy and density
   Barbara Sandhoefer     : DKH picture change effects
   Avijit Sen             : IP-ROCIS
   Kantharuban Sivalingam : CASSCF convergence, NEVPT2, FIC-MRCI
   Bernardo de Souza      : ESD, SOC TD-DFT
   Georgi Stoychev        : AutoAux, RI-MP2 NMR, DLPNO-MP2 response
   Willem Van den Heuvel  : Paramagnetic NMR
   Boris Wezisla          : Elementary symmetry handling
   Frank Wennmohs         : Technical directorship


 We gratefully acknowledge several colleagues who have allowed us to
 interface, adapt or use parts of their codes:
   Stefan Grimme, W. Hujo, H. Kruse, P. Pracht,  : VdW corrections, initial TS optimization,
                  C. Bannwarth, S. Ehlert          DFT functionals, gCP, sTDA/sTD-DF
   Ed Valeev, F. Pavosevic, A. Kumar             : LibInt (2-el integral package), F12 methods
   Garnet Chan, S. Sharma, J. Yang, R. Olivares  : DMRG
   Ulf Ekstrom                                   : XCFun DFT Library
   Mihaly Kallay                                 : mrcc  (arbitrary order and MRCC methods)
   Jiri Pittner, Ondrej Demel                    : Mk-CCSD
   Frank Weinhold                                : gennbo (NPA and NBO analysis)
   Christopher J. Cramer and Donald G. Truhlar   : smd solvation model
   Lars Goerigk                                  : TD-DFT with DH, B97 family of functionals
   V. Asgeirsson, H. Jonsson                     : NEB implementation
   FAccTs GmbH                                   : IRC, NEB, NEB-TS, DLPNO-Multilevel, CI-OPT
                                                   MM, QMMM, 2- and 3-layer-ONIOM, Crystal-QMMM,
                                                   LR-CPCM, SF, NACMEs, symmetry and pop. for TD-DFT,
                                                   nearIR, NL-DFT gradient (VV10), updates on ESD,
                                                   ML-optimized integration grids
   S Lehtola, MJT Oliveira, MAL Marques          : LibXC Library
   Liviu Ungur et al                             : ANISO software


 Your calculation uses the libint2 library for the computation of 2-el integrals
 For citations please refer to: http://libint.valeyev.net

 Your ORCA version has been built with support for libXC version: 5.1.0
 For citations please refer to: https://tddft.org/programs/libxc/

 This ORCA versions uses:
   CBLAS   interface :  Fast vector & matrix operations
   LAPACKE interface :  Fast linear algebra routines
   SCALAPACK package :  Parallel linear algebra routines
   Shared memory     :  Shared parallel matrices
   BLAS/LAPACK       :  OpenBLAS 0.3.15  USE64BITINT DYNAMIC_ARCH NO_AFFINITY Haswell SINGLE_THREADED
        Core in use  :  Haswell
   Copyright (c) 2011-2014, The OpenBLAS Project


Your calculation utilizes the semiempirical GFN2-xTB method
Please cite in your paper:
C. Bannwarth, Ehlert S., S. Grimme,  J. Chem. Theory Comput., 15, (2019), 1652.
   

================================================================================

================================================================================
                                        WARNINGS
                       Please study these warnings very carefully!
================================================================================


WARNING: Geometry Optimization
  ===> : Switching off AutoStart
         For restart on a previous wavefunction, please use MOREAD

WARNING: Found dipole moment calculation with XTB calculation
  ===> : Switching off dipole moment calculation


WARNING: TRAH-SCF for XTB is not implemented!
  ===> : Turning TRAH off!

================================================================================
                                       INPUT FILE
================================================================================
NAME = /tmp/C00085.inp
|  1> ! XTB2 opt numfreq
|  2> * XYZ 0 1
|  3> O 3.9195 -1.8937 -0.5378
|  4> P 2.9028 -1.8876 0.5481
|  5> O 2.2576 -3.3200 0.8292
|  6> O 3.4704 -1.5006 1.9868
|  7> O 1.6248 -0.9502 0.3519
|  8> C 1.8781 0.4272 0.1071
|  9> C 0.5697 1.1946 -0.0539
| 10> O -0.1710 0.7006 -1.1891
| 11> C -1.5717 0.9114 -0.9272
| 12> O -2.0183 1.8812 -1.8696
| 13> C -2.3428 -0.4075 -1.1498
| 14> O -2.1825 -1.3208 -0.0600
| 15> C -1.6889 1.4828 0.5057
| 16> O -2.7869 1.0097 1.2920
| 17> C -0.3685 1.0699 1.1333
| 18> O -0.0059 1.9257 2.2114
| 19> H 1.9499 -3.7271 0.0000
| 20> H 4.2657 -2.0193 2.1993
| 21> H 2.4648 0.5058 -0.8145
| 22> H 2.4611 0.8400 0.9369
| 23> H 0.8103 2.2485 -0.2462
| 24> H -1.7759 1.5196 -2.7384
| 25> H -3.4136 -0.2097 -1.2685
| 26> H -1.9869 -0.9003 -2.0617
| 27> H -2.5367 -2.1776 -0.3610
| 28> H -1.7763 2.5760 0.4828
| 29> H -2.7484 0.0302 1.2558
| 30> H -0.4241 0.0466 1.5207
| 31> H -0.7765 1.9444 2.8108
| 32> *
| 33> 
| 34>                          ****END OF INPUT****
================================================================================

                       *****************************
                       * Geometry Optimization Run *
                       *****************************

Geometry optimization settings:
Update method            Update   .... BFGS
Choice of coordinates    CoordSys .... Z-matrix Internals
Initial Hessian          InHess   .... Almoef's Model

Convergence Tolerances:
Energy Change            TolE     ....  5.0000e-06 Eh
Max. Gradient            TolMAXG  ....  3.0000e-04 Eh/bohr
RMS Gradient             TolRMSG  ....  1.0000e-04 Eh/bohr
Max. Displacement        TolMAXD  ....  4.0000e-03 bohr
RMS Displacement         TolRMSD  ....  2.0000e-03 bohr
Strict Convergence                ....  False
------------------------------------------------------------------------------
                        ORCA OPTIMIZATION COORDINATE SETUP
------------------------------------------------------------------------------

The optimization will be done in new redundant internal coordinates
Making redundant internal coordinates   ...  (new redundants) done
Evaluating the initial hessian          ...  (Almloef) done
Evaluating the coordinates              ...  done
Calculating the B-matrix                .... done
Calculating the G-matrix                .... done
Diagonalizing the G-matrix              .... done
Small eigenvalue found = 6.173e-03
Small eigenvalue found = 1.462e-02
Small eigenvalue found = 2.616e-02
The first mode is                       ....   73
The number of degrees of freedom        ....   81

    -----------------------------------------------------------------
                    Redundant Internal Coordinates


    -----------------------------------------------------------------
         Definition                    Initial Value    Approx d2E/dq
    -----------------------------------------------------------------
      1. B(P   1,O   0)                  1.4876         1.314275   
      2. B(O   2,P   1)                  1.5960         0.882638   
      3. B(O   3,P   1)                  1.5943         0.888014   
      4. B(O   4,P   1)                  1.5970         0.879164   
      5. B(C   5,O   4)                  1.4217         0.498025   
      6. B(C   6,C   5)                  1.5254         0.379992   
      7. B(O   7,C   6)                  1.4427         0.461120   
      8. B(C   8,O   7)                  1.4405         0.464873   
      9. B(O   9,C   8)                  1.4241         0.493696   
     10. B(C  10,C   8)                  1.5439         0.354971   
     11. B(O  11,C  10)                  1.4309         0.481527   
     12. B(C  12,C   8)                  1.5471         0.350863   
     13. B(O  13,C  12)                  1.4310         0.481392   
     14. B(C  14,C  12)                  1.5192         0.388762   
     15. B(C  14,C   6)                  1.5183         0.389992   
     16. B(O  15,C  14)                  1.4234         0.494914   
     17. B(H  16,O   2)                  0.9736         0.494537   
     18. B(H  17,O   3)                  0.9730         0.495728   
     19. B(H  18,C   5)                  1.0953         0.353121   
     20. B(H  19,C   5)                  1.0949         0.353643   
     21. B(H  20,C   6)                  1.0980         0.349689   
     22. B(H  21,O   9)                  0.9718         0.497964   
     23. B(H  22,C  10)                  1.0954         0.353071   
     24. B(H  23,C  10)                  1.0959         0.352331   
     25. B(H  24,O  11)                  0.9748         0.492506   
     26. B(H  25,C  12)                  1.0969         0.351052   
     27. B(H  26,O  13)                  0.9809         0.481485   
     28. B(H  27,C  14)                  1.0956         0.352783   
     29. B(H  28,O  15)                  0.9764         0.489465   
     30. A(O   0,P   1,O   4)          117.3649         0.603061   
     31. A(O   3,P   1,O   4)          104.6718         0.559411   
     32. A(O   2,P   1,O   3)          101.7036         0.559831   
     33. A(O   0,P   1,O   2)          113.6530         0.603520   
     34. A(O   2,P   1,O   4)          102.9992         0.558765   
     35. A(O   0,P   1,O   3)          114.6078         0.604228   
     36. A(P   1,O   2,H  16)          110.6727         0.416137   
     37. A(P   1,O   3,H  17)          111.0192         0.416766   
     38. A(P   1,O   4,C   5)          116.5670         0.468818   
     39. A(O   4,C   5,H  18)          108.0488         0.336975   
     40. A(C   6,C   5,H  19)          110.3064         0.324262   
     41. A(O   4,C   5,C   6)          110.6561         0.380512   
     42. A(H  18,C   5,H  19)          108.9898         0.289126   
     43. A(O   4,C   5,H  19)          109.2463         0.337058   
     44. A(C   6,C   5,H  18)          109.5447         0.324184   
     45. A(C   5,C   6,C  14)          113.9655         0.367105   
     46. A(O   7,C   6,H  20)          107.6596         0.332153   
     47. A(O   7,C   6,C  14)          105.6580         0.377165   
     48. A(C   5,C   6,O   7)          110.5592         0.375476   
     49. A(C  14,C   6,H  20)          110.5599         0.325048   
     50. A(C   5,C   6,H  20)          108.2654         0.323664   
     51. A(C   6,O   7,C   8)          107.8222         0.386384   
     52. A(O   7,C   8,C  12)          107.2241         0.370868   
     53. A(O   9,C   8,C  10)          109.2509         0.375486   
     54. A(O   7,C   8,O   9)          106.5158         0.391015   
     55. A(O   7,C   8,C  10)          109.5377         0.371612   
     56. A(C  10,C   8,C  12)          114.2814         0.356375   
     57. A(O   9,C   8,C  12)          109.7329         0.374732   
     58. A(C   8,O   9,H  21)          105.0704         0.353390   
     59. A(C   8,C  10,O  11)          112.3019         0.373872   
     60. A(H  22,C  10,H  23)          107.9684         0.288951   
     61. A(O  11,C  10,H  23)          108.0795         0.334967   
     62. A(C   8,C  10,H  23)          109.9929         0.320468   
     63. A(O  11,C  10,H  22)          107.8970         0.335084   
     64. A(C   8,C  10,H  22)          110.4634         0.320578   
     65. A(C  10,O  11,H  24)          106.5671         0.351246   
     66. A(C  14,C  12,H  25)          110.4109         0.325087   
     67. A(O  13,C  12,H  25)          106.2497         0.334749   
     68. A(O  13,C  12,C  14)          110.4907         0.379777   
     69. A(C   8,C  12,H  25)          110.7804         0.319669   
     70. A(C   8,C  12,C  14)          102.4980         0.361935   
     71. A(C   8,C  12,O  13)          116.4202         0.373105   
     72. A(C  12,O  13,H  26)          106.2446         0.349890   
     73. A(C  12,C  14,O  15)          111.7709         0.381606   
     74. A(O  15,C  14,H  27)          107.8584         0.336570   
     75. A(C  12,C  14,H  27)          110.8446         0.325350   
     76. A(C   6,C  14,O  15)          112.6711         0.381815   
     77. A(C   6,C  14,H  27)          112.6166         0.325519   
     78. A(C   6,C  14,C  12)          101.0536         0.368545   
     79. A(C  14,O  15,H  28)          105.9865         0.352509   
     80. D(H  16,O   2,P   1,O   3)   -173.8695         0.013466   
     81. D(H  16,O   2,P   1,O   0)    -50.1603         0.013466   
     82. D(H  16,O   2,P   1,O   4)     77.8731         0.013466   
     83. D(H  17,O   3,P   1,O   4)   -179.5173         0.013623   
     84. D(H  17,O   3,P   1,O   2)     73.5233         0.013623   
     85. D(H  17,O   3,P   1,O   0)    -49.5369         0.013623   
     86. D(C   5,O   4,P   1,O   3)     72.7557         0.013365   
     87. D(C   5,O   4,P   1,O   2)    178.7561         0.013365   
     88. D(C   5,O   4,P   1,O   0)    -55.5741         0.013365   
     89. D(H  18,C   5,O   4,P   1)     60.2705         0.019604   
     90. D(C   6,C   5,O   4,P   1)   -179.8038         0.019604   
     91. D(H  19,C   5,O   4,P   1)    -58.1717         0.019604   
     92. D(O   7,C   6,C   5,H  19)    177.0161         0.011508   
     93. D(O   7,C   6,C   5,H  18)     57.0466         0.011508   
     94. D(H  20,C   6,C   5,H  18)    -60.6621         0.011508   
     95. D(H  20,C   6,C   5,H  19)     59.3074         0.011508   
     96. D(C  14,C   6,C   5,H  19)    -64.1570         0.011508   
     97. D(C  14,C   6,C   5,H  18)    175.8735         0.011508   
     98. D(C  14,C   6,C   5,O   4)     56.8486         0.011508   
     99. D(O   7,C   6,C   5,O   4)    -61.9784         0.011508   
    100. D(H  20,C   6,C   5,O   4)   -179.6870         0.011508   
    101. D(C   8,O   7,C   6,H  20)    -90.7331         0.016752   
    102. D(C   8,O   7,C   6,C  14)     27.4307         0.016752   
    103. D(C   8,O   7,C   6,C   5)    151.1872         0.016752   
    104. D(C  12,C   8,O   7,C   6)     -4.0934         0.017029   
    105. D(C  10,C   8,O   7,C   6)   -128.6236         0.017029   
    106. D(O   9,C   8,O   7,C   6)    113.3339         0.017029   
    107. D(H  21,O   9,C   8,C  12)    170.5651         0.019254   
    108. D(H  21,O   9,C   8,C  10)    -63.4184         0.019254   
    109. D(H  21,O   9,C   8,O   7)     54.8128         0.019254   
    110. D(O  11,C  10,C   8,O   7)     77.3615         0.010130   
    111. D(H  23,C  10,C   8,O   9)     73.2762         0.010130   
    112. D(H  23,C  10,C   8,O   7)    -43.0476         0.010130   
    113. D(H  22,C  10,C   8,C  12)     77.5476         0.010130   
    114. D(H  22,C  10,C   8,O   9)    -45.8118         0.010130   
    115. D(H  22,C  10,C   8,O   7)   -162.1356         0.010130   
    116. D(O  11,C  10,C   8,C  12)    -42.9553         0.010130   
    117. D(H  23,C  10,C   8,C  12)   -163.3644         0.010130   
    118. D(O  11,C  10,C   8,O   9)   -166.3147         0.010130   
    119. D(H  24,O  11,C  10,H  23)    -46.8919         0.018294   
    120. D(H  24,O  11,C  10,H  22)     69.6236         0.018294   
    121. D(H  24,O  11,C  10,C   8)   -168.4015         0.018294   
    122. D(H  25,C  12,C   8,C  10)   -141.0370         0.009914   
    123. D(H  25,C  12,C   8,O   9)    -17.9380         0.009914   
    124. D(H  25,C  12,C   8,O   7)     97.3645         0.009914   
    125. D(C  14,C  12,C   8,C  10)    101.1762         0.009914   
    126. D(C  14,C  12,C   8,O   9)   -135.7248         0.009914   
    127. D(C  14,C  12,C   8,O   7)    -20.4224         0.009914   
    128. D(O  13,C  12,C   8,C  10)    -19.5208         0.009914   
    129. D(O  13,C  12,C   8,O   9)    103.5782         0.009914   
    130. D(O  13,C  12,C   8,O   7)   -141.1193         0.009914   
    131. D(H  26,O  13,C  12,H  25)    175.7889         0.018283   
    132. D(H  26,O  13,C  12,C  14)    -64.4279         0.018283   
    133. D(H  26,O  13,C  12,C   8)     51.9083         0.018283   
    134. D(H  27,C  14,C   6,O   7)     78.8794         0.012092   
    135. D(H  27,C  14,C   6,C   5)    -42.7020         0.012092   
    136. D(O  15,C  14,C   6,H  20)    -42.6338         0.012092   
    137. D(O  15,C  14,C   6,O   7)   -158.8409         0.012092   
    138. D(O  15,C  14,C   6,C   5)     79.5776         0.012092   
    139. D(C  12,C  14,C   6,H  20)     76.7827         0.012092   
    140. D(C  12,C  14,C   6,O   7)    -39.4245         0.012092   
    141. D(H  27,C  14,C   6,H  20)   -164.9134         0.012092   
    142. D(C  12,C  14,C   6,C   5)   -161.0059         0.012092   
    143. D(H  27,C  14,C  12,H  25)    157.6516         0.012019   
    144. D(H  27,C  14,C  12,C   8)    -84.2994         0.012019   
    145. D(O  15,C  14,C  12,H  25)     37.2929         0.012019   
    146. D(O  15,C  14,C  12,O  13)    -79.9520         0.012019   
    147. D(O  15,C  14,C  12,C   8)    155.3418         0.012019   
    148. D(C   6,C  14,C  12,H  25)    -82.7672         0.012019   
    149. D(H  27,C  14,C  12,O  13)     40.4067         0.012019   
    150. D(C   6,C  14,C  12,O  13)    159.9879         0.012019   
    151. D(C   6,C  14,C  12,C   8)     35.2817         0.012019   
    152. D(H  28,O  15,C  14,H  27)    -69.2833         0.019352   
    153. D(H  28,O  15,C  14,C  12)     52.8058         0.019352   
    154. D(H  28,O  15,C  14,C   6)    165.7957         0.019352   
    -----------------------------------------------------------------

Number of atoms                         .... 29
Number of degrees of freedom            .... 154

         *************************************************************
         *                GEOMETRY OPTIMIZATION CYCLE   1            *
         *************************************************************
---------------------------------
CARTESIAN COORDINATES (ANGSTROEM)
---------------------------------
  O     3.919500   -1.893700   -0.537800
  P     2.902800   -1.887600    0.548100
  O     2.257600   -3.320000    0.829200
  O     3.470400   -1.500600    1.986800
  O     1.624800   -0.950200    0.351900
  C     1.878100    0.427200    0.107100
  C     0.569700    1.194600   -0.053900
  O    -0.171000    0.700600   -1.189100
  C    -1.571700    0.911400   -0.927200
  O    -2.018300    1.881200   -1.869600
  C    -2.342800   -0.407500   -1.149800
  O    -2.182500   -1.320800   -0.060000
  C    -1.688900    1.482800    0.505700
  O    -2.786900    1.009700    1.292000
  C    -0.368500    1.069900    1.133300
  O    -0.005900    1.925700    2.211400
  H     1.949900   -3.727100    0.000000
  H     4.265700   -2.019300    2.199300
  H     2.464800    0.505800   -0.814500
  H     2.461100    0.840000    0.936900
  H     0.810300    2.248500   -0.246200
  H    -1.775900    1.519600   -2.738400
  H    -3.413600   -0.209700   -1.268500
  H    -1.986900   -0.900300   -2.061700
  H    -2.536700   -2.177600   -0.361000
  H    -1.776300    2.576000    0.482800
  H    -2.748400    0.030200    1.255800
  H    -0.424100    0.046600    1.520700
  H    -0.776500    1.944400    2.810800

----------------------------
CARTESIAN COORDINATES (A.U.)
----------------------------
  NO LB    ZA    FRAG    MASS        X           Y           Z
   0 O   8.0000    0    15.999    7.406782   -3.578574   -1.016295
   1 P  15.0000    0    30.974    5.485497   -3.567047    1.035759
   2 O   8.0000    0    15.999    4.266246   -6.273891    1.566961
   3 O   8.0000    0    15.999    6.558106   -2.835723    3.754508
   4 O   8.0000    0    15.999    3.070427   -1.795618    0.664995
   5 C   6.0000    0    12.011    3.549095    0.807291    0.202390
   6 C   6.0000    0    12.011    1.076577    2.257467   -0.101856
   7 O   8.0000    0    15.999   -0.323143    1.323942   -2.247073
   8 C   6.0000    0    12.011   -2.970083    1.722296   -1.752154
   9 O   8.0000    0    15.999   -3.814034    3.554953   -3.533032
  10 C   6.0000    0    12.011   -4.427250   -0.770063   -2.172807
  11 O   8.0000    0    15.999   -4.124327   -2.495950   -0.113384
  12 C   6.0000    0    12.011   -3.191558    2.802086    0.955635
  13 O   8.0000    0    15.999   -5.266478    1.908056    2.441526
  14 C   6.0000    0    12.011   -0.696364    2.021818    2.141627
  15 O   8.0000    0    15.999   -0.011149    3.639046    4.178940
  16 H   1.0000    0     1.008    3.684777   -7.043198    0.000000
  17 H   1.0000    0     1.008    8.061005   -3.815924    4.156075
  18 H   1.0000    0     1.008    4.657797    0.955823   -1.539182
  19 H   1.0000    0     1.008    4.650805    1.587370    1.770484
  20 H   1.0000    0     1.008    1.531245    4.249049   -0.465251
  21 H   1.0000    0     1.008   -3.355965    2.871628   -5.174826
  22 H   1.0000    0     1.008   -6.450769   -0.396276   -2.397118
  23 H   1.0000    0     1.008   -3.754697   -1.701320   -3.896048
  24 H   1.0000    0     1.008   -4.793668   -4.115068   -0.682191
  25 H   1.0000    0     1.008   -3.356721    4.867935    0.912360
  26 H   1.0000    0     1.008   -5.193723    0.057070    2.373118
  27 H   1.0000    0     1.008   -0.801433    0.088061    2.873707
  28 H   1.0000    0     1.008   -1.467372    3.674383    5.311642

      -----------------------------------------------------------      
     |                   =====================                   |     
     |                           x T B                           |     
     |                   =====================                   |     
     |                         S. Grimme                         |     
     |          Mulliken Center for Theoretical Chemistry        |     
     |                    University of Bonn                     |     
      -----------------------------------------------------------      

   * xtb version 6.5.1 (579679a) compiled by 'ehlert@majestix' on 2022-07-11

   xtb is free software: you can redistribute it and/or modify it under
   the terms of the GNU Lesser General Public License as published by
   the Free Software Foundation, either version 3 of the License, or
   (at your option) any later version.
   
   xtb is distributed in the hope that it will be useful,
   but WITHOUT ANY WARRANTY; without even the implied warranty of
   MERCHANTABILITY or FITNESS FOR A PARTICULAR PURPOSE.  See the
   GNU Lesser General Public License for more details.
   
   Cite this work as:
   * C. Bannwarth, E. Caldeweyher, S. Ehlert, A. Hansen, P. Pracht,
     J. Seibert, S. Spicher, S. Grimme, WIREs Comput. Mol. Sci., 2020, 11,
     e01493. DOI: 10.1002/wcms.1493
   
   for GFN2-xTB:
   * C. Bannwarth, S. Ehlert and S. Grimme., J. Chem. Theory Comput., 2019,
     15, 1652-1671. DOI: 10.1021/acs.jctc.8b01176
   for GFN1-xTB:
   * S. Grimme, C. Bannwarth, P. Shushkov, J. Chem. Theory Comput., 2017,
     13, 1989-2009. DOI: 10.1021/acs.jctc.7b00118
   for GFN0-xTB:
   * P. Pracht, E. Caldeweyher, S. Ehlert, S. Grimme, ChemRxiv, 2019, preprint.
     DOI: 10.26434/chemrxiv.8326202.v1
   for GFN-FF:
   * S. Spicher and S. Grimme, Angew. Chem. Int. Ed., 2020, 59, 15665-15673.
     DOI: 10.1002/anie.202004239
   
   for ALPB and GBSA implicit solvation:
   * S. Ehlert, M. Stahn, S. Spicher, S. Grimme, J. Chem. Theory Comput.,
     2021, 17, 4250-4261. DOI: 10.1021/acs.jctc.1c00471
   
   for DFT-D4:
   * E. Caldeweyher, C. Bannwarth and S. Grimme, J. Chem. Phys., 2017,
     147, 034112. DOI: 10.1063/1.4993215
   * E. Caldeweyher, S. Ehlert, A. Hansen, H. Neugebauer, S. Spicher,
     C. Bannwarth and S. Grimme, J. Chem. Phys., 2019, 150, 154122.
     DOI: 10.1063/1.5090222
   * E. Caldeweyher, J.-M. Mewes, S. Ehlert and S. Grimme, Phys. Chem. Chem. Phys.
     2020, 22, 8499-8512. DOI: 10.1039/D0CP00502A
   
   for sTDA-xTB:
   * S. Grimme and C. Bannwarth, J. Chem. Phys., 2016, 145, 054103.
     DOI: 10.1063/1.4959605
   
   in the mass-spec context:
   * V. Asgeirsson, C. Bauer and S. Grimme, Chem. Sci., 2017, 8, 4879.
     DOI: 10.1039/c7sc00601b
   * J. Koopman and S. Grimme, ACS Omega 2019, 4, 12, 15120-15133.
     DOI: 10.1021/acsomega.9b02011
   
   for metadynamics refer to:
   * S. Grimme, J. Chem. Theory Comput., 2019, 155, 2847-2862
     DOI: 10.1021/acs.jctc.9b00143
   
   for SPH calculations refer to:
   * S. Spicher and S. Grimme, J. Chem. Theory Comput., 2021, 17, 1701-1714
     DOI: 10.1021/acs.jctc.0c01306
   
   with help from (in alphabetical order)
   P. Atkinson, C. Bannwarth, F. Bohle, G. Brandenburg, E. Caldeweyher
   M. Checinski, S. Dohm, S. Ehlert, S. Ehrlich, I. Gerasimov, C. Hölzer
   A. Katbashev, J. Koopman, C. Lavigne, S. Lehtola, F. März, M. Müller,
   F. Musil, H. Neugebauer, J. Pisarek, C. Plett, P. Pracht, F. Pultar,
   J. Seibert, P. Shushkov, S. Spicher, M. Stahn, M. Steiner, T. Strunk,
   J. Stückrath, T. Rose, and J. Unsleber
   
 * started run on 2023/12/04 at 13:40:43.997     

           -------------------------------------------------
          |                Calculation Setup                |
           -------------------------------------------------

          program call               : otool_xtb /tmp/C00085_XTB.xyz --grad -c 0 -u 0 -P 1 --namespace /tmp/C00085 --input /tmp/C00085_XTB.input.tmp --acc 1.000000
          calculation namespace      : /tmp/C00085
          coordinate file            : /tmp/C00085_XTB.xyz
          omp threads                :                     1

   ID    Z sym.   atoms
    1    8 O      1, 3-5, 8, 10, 12, 14, 16
    2   15 P      2
    3    6 C      6, 7, 9, 11, 13, 15
    4    1 H      17-29

           -------------------------------------------------
          |                 G F N 2 - x T B                 |
           -------------------------------------------------

        Reference                      10.1021/acs.jctc.8b01176
      * Hamiltonian:
        H0-scaling (s, p, d)           1.850000    2.230000    2.230000
        zeta-weighting                 0.500000
      * Dispersion:
        s8                             2.700000
        a1                             0.520000
        a2                             5.000000
        s9                             5.000000
      * Repulsion:
        kExp                           1.500000    1.000000
        rExp                           1.000000
      * Coulomb:
        alpha                          2.000000
        third order                    shell-resolved
        anisotropic                    true
        a3                             3.000000
        a5                             4.000000
        cn-shift                       1.200000
        cn-exp                         4.000000
        max-rad                        5.000000


          ...................................................
          :                      SETUP                      :
          :.................................................:
          :  # basis functions                  83          :
          :  # atomic orbitals                  82          :
          :  # shells                           46          :
          :  # electrons                        96          :
          :  max. iterations                   250          :
          :  Hamiltonian                  GFN2-xTB          :
          :  restarted?                      false          :
          :  GBSA solvation                  false          :
          :  PC potential                    false          :
          :  electronic temp.          300.0000000     K    :
          :  accuracy                    1.0000000          :
          :  -> integral cutoff          0.2500000E+02      :
          :  -> integral neglect         0.1000000E-07      :
          :  -> SCF convergence          0.1000000E-05 Eh   :
          :  -> wf. convergence          0.1000000E-03 e    :
          :  Broyden damping             0.4000000          :
          ...................................................

 iter      E             dE          RMSdq      gap      omega  full diag
   1    -59.0162780 -0.590163E+02  0.650E+00    9.98       0.0  T
   2    -59.0833265 -0.670484E-01  0.375E+00    9.69       1.0  T
   3    -59.0950644 -0.117379E-01  0.885E-01    9.20       1.0  T
   4    -59.0982282 -0.316376E-02  0.421E-01    9.21       1.0  T
   5    -59.0986475 -0.419283E-03  0.144E-01    9.20       1.0  T
   6    -59.0988207 -0.173238E-03  0.668E-02    9.20       1.0  T
   7    -59.0988304 -0.970272E-05  0.220E-02    9.21       1.0  T
   8    -59.0988318 -0.141767E-05  0.920E-03    9.21       2.0  T
   9    -59.0988320 -0.171192E-06  0.271E-03    9.20       6.9  T
  10    -59.0988320 -0.428195E-07  0.114E-03    9.20      16.3  T
  11    -59.0988320 -0.254660E-08  0.337E-04    9.20      55.2  T
  12    -59.0988320 -0.471054E-09  0.126E-04    9.20     147.0  T

   *** convergence criteria satisfied after 12 iterations ***

         #    Occupation            Energy/Eh            Energy/eV
      -------------------------------------------------------------
         1        2.0000           -0.7437800             -20.2393
       ...           ...                  ...                  ...
        42        2.0000           -0.4476938             -12.1824
        43        2.0000           -0.4441074             -12.0848
        44        2.0000           -0.4383847             -11.9291
        45        2.0000           -0.4334897             -11.7959
        46        2.0000           -0.4303304             -11.7099
        47        2.0000           -0.4255384             -11.5795
        48        2.0000           -0.4133547             -11.2480 (HOMO)
        49                         -0.0751557              -2.0451 (LUMO)
        50                         -0.0551233              -1.5000
        51                         -0.0446064              -1.2138
        52                         -0.0351818              -0.9573
        53                         -0.0209627              -0.5704
       ...                                ...                  ...
        82                          1.1559275              31.4544
      -------------------------------------------------------------
                  HL-Gap            0.3381990 Eh            9.2029 eV
             Fermi-level           -0.2442552 Eh           -6.6465 eV

 SCC (total)                   0 d,  0 h,  0 min,  0.094 sec
 SCC setup                      ...        0 min,  0.000 sec (  0.213%)
 Dispersion                     ...        0 min,  0.000 sec (  0.233%)
 classical contributions        ...        0 min,  0.000 sec (  0.052%)
 integral evaluation            ...        0 min,  0.005 sec (  5.670%)
 iterations                     ...        0 min,  0.071 sec ( 75.630%)
 molecular gradient             ...        0 min,  0.017 sec ( 18.000%)
 printout                       ...        0 min,  0.000 sec (  0.183%)

         :::::::::::::::::::::::::::::::::::::::::::::::::::::
         ::                     SUMMARY                     ::
         :::::::::::::::::::::::::::::::::::::::::::::::::::::
         :: total energy             -58.735126505934 Eh    ::
         :: gradient norm              0.080083998148 Eh/a0 ::
         :: HOMO-LUMO gap              9.202863490506 eV    ::
         ::.................................................::
         :: SCC energy               -59.098832030802 Eh    ::
         :: -> isotropic ES            0.226932244131 Eh    ::
         :: -> anisotropic ES         -0.006507570180 Eh    ::
         :: -> anisotropic XC         -0.007326056902 Eh    ::
         :: -> dispersion             -0.025941907148 Eh    ::
         :: repulsion energy           0.363318633383 Eh    ::
         :: add. restraining           0.000000000000 Eh    ::
         :: total charge               0.000000000000 e     ::
         :::::::::::::::::::::::::::::::::::::::::::::::::::::


Property printout bound to 'properties.out'

           -------------------------------------------------
          | TOTAL ENERGY              -58.735126505934 Eh   |
          | GRADIENT NORM               0.080083998148 Eh/α |
          | HOMO-LUMO GAP               9.202863490506 eV   |
           -------------------------------------------------

------------------------------------------------------------------------
 * finished run on 2023/12/04 at 13:40:44.104     
------------------------------------------------------------------------
 total:
 * wall-time:     0 d,  0 h,  0 min,  0.106 sec
 *  cpu-time:     0 d,  0 h,  0 min,  0.048 sec
 * ratio c/w:     0.451 speedup
 SCF:
 * wall-time:     0 d,  0 h,  0 min,  0.095 sec
 *  cpu-time:     0 d,  0 h,  0 min,  0.040 sec
 * ratio c/w:     0.423 speedup


-------------------------   --------------------
FINAL SINGLE POINT ENERGY       -58.735126505930
-------------------------   --------------------

------------------------------------------------------------------------------
                         ORCA GEOMETRY RELAXATION STEP
------------------------------------------------------------------------------

Reading the OPT-File                    .... done
Getting information on internals        .... done
Copying old internal coords+grads       .... done
Making the new internal coordinates     .... (new redundants).... done
Validating the new internal coordinates .... (new redundants).... done
Calculating the B-matrix                .... done
Calculating the G,G- and P matrices     .... done
Transforming gradient to internals      .... done
Projecting the internal gradient        .... done
Number of atoms                         ....  29
Number of internal coordinates          .... 154
Current Energy                          ....   -58.735126506 Eh
Current gradient norm                   ....     0.080083998 Eh/bohr
Maximum allowed component of the step   ....  0.300
Current trust radius                    ....  0.300
Evaluating the initial hessian          ....  (Almloef) done
Projecting the Hessian                  .... done
Forming the augmented Hessian           .... done
Diagonalizing the augmented Hessian     .... done
Last element of RFO vector              ....  0.974194353
Lowest eigenvalues of augmented Hessian:
 -0.010065849  0.010130016  0.011521891  0.012754765  0.013411032
Length of the computed step             ....  0.231689695
The final length of the internal step   ....  0.231689695
Converting the step to cartesian space:
 Initial RMS(Int)=    0.0186700877
Transforming coordinates:
 Iter   0:  RMS(Cart)=    0.0600658145 RMS(Int)=    0.8740192907
 Iter   1:  RMS(Cart)=    0.0012364037 RMS(Int)=    0.0005626204
 Iter   2:  RMS(Cart)=    0.0000535787 RMS(Int)=    0.0000213086
 Iter   3:  RMS(Cart)=    0.0000027216 RMS(Int)=    0.0000016813
 Iter   4:  RMS(Cart)=    0.0000001380 RMS(Int)=    0.0000000741
 Iter   5:  RMS(Cart)=    0.0000000089 RMS(Int)=    0.0000000064
done
Storing new coordinates                 .... done

                                .--------------------.
          ----------------------|Geometry convergence|-------------------------
          Item                value                   Tolerance       Converged
          ---------------------------------------------------------------------
          RMS gradient        0.0050472005            0.0001000000      NO
          MAX gradient        0.0260528039            0.0003000000      NO
          RMS step            0.0186700877            0.0020000000      NO
          MAX step            0.0463798631            0.0040000000      NO
          ........................................................
          Max(Bonds)      0.0215      Max(Angles)    1.92
          Max(Dihed)        2.66      Max(Improp)    0.00
          ---------------------------------------------------------------------

The optimization has not yet converged - more geometry cycles are needed


    ---------------------------------------------------------------------------
                         Redundant Internal Coordinates
                            (Angstroem and degrees)

        Definition                    Value    dE/dq     Step     New-Value
    ----------------------------------------------------------------------------
     1. B(P   1,O   0)                1.4876  0.026053 -0.0104    1.4772   
     2. B(O   2,P   1)                1.5960  0.003154 -0.0019    1.5941   
     3. B(O   3,P   1)                1.5943  0.003935 -0.0023    1.5920   
     4. B(O   4,P   1)                1.5970  0.009334 -0.0056    1.5915   
     5. B(C   5,O   4)                1.4217  0.001818 -0.0019    1.4198   
     6. B(C   6,C   5)                1.5254  0.003803 -0.0052    1.5202   
     7. B(O   7,C   6)                1.4427  0.011986 -0.0136    1.4290   
     8. B(C   8,O   7)                1.4405  0.010321 -0.0132    1.4273   
     9. B(O   9,C   8)                1.4241  0.014743 -0.0155    1.4086   
    10. B(C  10,C   8)                1.5439  0.009272 -0.0134    1.5305   
    11. B(O  11,C  10)                1.4309  0.005649 -0.0061    1.4248   
    12. B(C  12,C   8)                1.5471  0.005689 -0.0095    1.5376   
    13. B(O  13,C  12)                1.4310  0.019964 -0.0215    1.4095   
    14. B(C  14,C  12)                1.5192 -0.010111  0.0146    1.5337   
    15. B(C  14,C   6)                1.5183  0.001325  0.0002    1.5185   
    16. B(O  15,C  14)                1.4234  0.009665 -0.0101    1.4133   
    17. B(H  16,O   2)                0.9736  0.015350 -0.0161    0.9575   
    18. B(H  17,O   3)                0.9730  0.014810 -0.0155    0.9575   
    19. B(H  18,C   5)                1.0953  0.000011 -0.0000    1.0953   
    20. B(H  19,C   5)                1.0949  0.001592 -0.0023    1.0926   
    21. B(H  20,C   6)                1.0980 -0.000387  0.0006    1.0986   
    22. B(H  21,O   9)                0.9718  0.005895 -0.0061    0.9656   
    23. B(H  22,C  10)                1.0954 -0.001892  0.0028    1.0981   
    24. B(H  23,C  10)                1.0959 -0.000297  0.0004    1.0964   
    25. B(H  24,O  11)                0.9748  0.010705 -0.0113    0.9635   
    26. B(H  25,C  12)                1.0969  0.003364 -0.0049    1.0920   
    27. B(H  26,O  13)                0.9809  0.009117 -0.0098    0.9711   
    28. B(H  27,C  14)                1.0956 -0.001383  0.0020    1.0976   
    29. B(H  28,O  15)                0.9764  0.009408 -0.0100    0.9665   
    30. A(O   0,P   1,O   4)          117.36  0.001800   -0.47    116.90   
    31. A(O   3,P   1,O   4)          104.67  0.004191   -0.75    103.92   
    32. A(O   2,P   1,O   3)          101.70 -0.004181    0.73    102.43   
    33. A(O   0,P   1,O   2)          113.65 -0.003302    0.67    114.33   
    34. A(O   2,P   1,O   4)          103.00  0.002842   -0.42    102.58   
    35. A(O   0,P   1,O   3)          114.61 -0.001405    0.26    114.87   
    36. A(P   1,O   2,H  16)          110.67  0.001718   -0.23    110.44   
    37. A(P   1,O   3,H  17)          111.02  0.002889   -0.39    110.63   
    38. A(P   1,O   4,C   5)          116.57  0.002732   -0.33    116.24   
    39. A(O   4,C   5,H  18)          108.05 -0.002739    0.66    108.71   
    40. A(C   6,C   5,H  19)          110.31  0.002035   -0.68    109.62   
    41. A(O   4,C   5,C   6)          110.66  0.006207   -1.05    109.60   
    42. A(H  18,C   5,H  19)          108.99 -0.000292    0.34    109.33   
    43. A(O   4,C   5,H  19)          109.25 -0.003560    0.40    109.64   
    44. A(C   6,C   5,H  18)          109.54 -0.001837    0.39    109.93   
    45. A(C   5,C   6,C  14)          113.97 -0.003134    0.27    114.24   
    46. A(O   7,C   6,H  20)          107.66 -0.002221    0.81    108.47   
    47. A(O   7,C   6,C  14)          105.66  0.005315   -0.85    104.81   
    48. A(C   5,C   6,O   7)          110.56 -0.001408   -0.17    110.39   
    49. A(C  14,C   6,H  20)          110.56  0.000698   -0.32    110.24   
    50. A(C   5,C   6,H  20)          108.27  0.000767    0.26    108.53   
    51. A(C   6,O   7,C   8)          107.82 -0.010530    1.87    109.69   
    52. A(O   7,C   8,C  12)          107.22  0.001032   -0.23    107.00   
    53. A(O   9,C   8,C  10)          109.25  0.000012    0.07    109.32   
    54. A(O   7,C   8,O   9)          106.52 -0.003168    1.59    108.11   
    55. A(O   7,C   8,C  10)          109.54  0.000729   -0.41    109.13   
    56. A(C  10,C   8,C  12)          114.28 -0.000268   -0.49    113.79   
    57. A(O   9,C   8,C  12)          109.73  0.001445   -0.38    109.35   
    58. A(C   8,O   9,H  21)          105.07 -0.008495    1.34    106.41   
    59. A(C   8,C  10,O  11)          112.30  0.009066   -1.55    110.75   
    60. A(H  22,C  10,H  23)          107.97 -0.002819    1.01    108.98   
    61. A(O  11,C  10,H  23)          108.08 -0.007209    1.43    109.51   
    62. A(C   8,C  10,H  23)          109.99  0.003559   -0.99    109.00   
    63. A(O  11,C  10,H  22)          107.90 -0.007090    1.35    109.25   
    64. A(C   8,C  10,H  22)          110.46  0.003668   -1.05    109.41   
    65. A(C  10,O  11,H  24)          106.57 -0.005163    0.82    107.39   
    66. A(C  14,C  12,H  25)          110.41 -0.001062    0.01    110.42   
    67. A(O  13,C  12,H  25)          106.25  0.001089   -0.25    106.00   
    68. A(O  13,C  12,C  14)          110.49 -0.006014    1.92    112.41   
    69. A(C   8,C  12,H  25)          110.78  0.000930   -1.10    109.68   
    70. A(C   8,C  12,C  14)          102.50  0.003658    0.03    102.53   
    71. A(C   8,C  12,O  13)          116.42  0.001147   -0.54    115.88   
    72. A(C  12,O  13,H  26)          106.24 -0.001849    0.29    106.54   
    73. A(C  12,C  14,O  15)          111.77 -0.003971    1.16    112.93   
    74. A(O  15,C  14,H  27)          107.86 -0.003455    1.20    109.06   
    75. A(C  12,C  14,H  27)          110.84  0.002892   -0.63    110.22   
    76. A(C   6,C  14,O  15)          112.67  0.003073   -0.88    111.79   
    77. A(C   6,C  14,H  27)          112.62  0.003217   -1.50    111.11   
    78. A(C   6,C  14,C  12)          101.05 -0.001504    0.56    101.62   
    79. A(C  14,O  15,H  28)          105.99 -0.002320    0.37    106.35   
    80. D(H  16,O   2,P   1,O   3)   -173.87  0.003106    0.16   -173.71   
    81. D(H  16,O   2,P   1,O   0)    -50.16 -0.003172    1.33    -48.83   
    82. D(H  16,O   2,P   1,O   4)     77.87 -0.000903    0.86     78.74   
    83. D(H  17,O   3,P   1,O   4)   -179.52 -0.001467    2.23   -177.29   
    84. D(H  17,O   3,P   1,O   2)     73.52 -0.004357    2.66     76.18   
    85. D(H  17,O   3,P   1,O   0)    -49.54  0.003311    1.19    -48.35   
    86. D(C   5,O   4,P   1,O   3)     72.76  0.000996    1.54     74.30   
    87. D(C   5,O   4,P   1,O   2)    178.76 -0.001239    1.95    180.71   
    88. D(C   5,O   4,P   1,O   0)    -55.57 -0.002079    2.19    -53.39   
    89. D(H  18,C   5,O   4,P   1)     60.27 -0.000602   -0.94     59.34   
    90. D(C   6,C   5,O   4,P   1)   -179.80 -0.000871   -0.68   -180.48   
    91. D(H  19,C   5,O   4,P   1)    -58.17  0.003312   -1.94    -60.11   
    92. D(O   7,C   6,C   5,H  19)    177.02 -0.002456    0.46    177.47   
    93. D(O   7,C   6,C   5,H  18)     57.05 -0.002203    0.22     57.27   
    94. D(H  20,C   6,C   5,H  18)    -60.66  0.000830   -0.83    -61.49   
    95. D(H  20,C   6,C   5,H  19)     59.31  0.000577   -0.59     58.71   
    96. D(C  14,C   6,C   5,H  19)    -64.16  0.001258   -0.57    -64.73   
    97. D(C  14,C   6,C   5,H  18)    175.87  0.001511   -0.80    175.07   
    98. D(C  14,C   6,C   5,O   4)     56.85  0.002223   -1.22     55.63   
    99. D(O   7,C   6,C   5,O   4)    -61.98 -0.001491   -0.19    -62.17   
   100. D(H  20,C   6,C   5,O   4)   -179.69  0.001542   -1.24   -180.92   
   101. D(C   8,O   7,C   6,H  20)    -90.73 -0.002174    0.30    -90.43   
   102. D(C   8,O   7,C   6,C  14)     27.43  0.000266   -0.10     27.33   
   103. D(C   8,O   7,C   6,C   5)    151.19 -0.000989   -0.41    150.78   
   104. D(C  12,C   8,O   7,C   6)     -4.09  0.000986   -1.16     -5.25   
   105. D(C  10,C   8,O   7,C   6)   -128.62  0.000199   -0.15   -128.78   
   106. D(O   9,C   8,O   7,C   6)    113.33  0.001576   -0.91    112.42   
   107. D(H  21,O   9,C   8,C  12)    170.57  0.000716   -1.27    169.29   
   108. D(H  21,O   9,C   8,C  10)    -63.42  0.001385   -2.12    -65.53   
   109. D(H  21,O   9,C   8,O   7)     54.81  0.000493   -1.68     53.13   
   110. D(O  11,C  10,C   8,O   7)     77.36  0.001560   -0.76     76.61   
   111. D(H  23,C  10,C   8,O   9)     73.28 -0.001151    0.87     74.14   
   112. D(H  23,C  10,C   8,O   7)    -43.05  0.002239   -0.85    -43.90   
   113. D(H  22,C  10,C   8,C  12)     77.55 -0.000485    0.11     77.65   
   114. D(H  22,C  10,C   8,O   9)    -45.81 -0.002195    0.91    -44.91   
   115. D(H  22,C  10,C   8,O   7)   -162.14  0.001195   -0.82   -162.95   
   116. D(O  11,C  10,C   8,C  12)    -42.96 -0.000121    0.17    -42.79   
   117. D(H  23,C  10,C   8,C  12)   -163.36  0.000558    0.07   -163.30   
   118. D(O  11,C  10,C   8,O   9)   -166.31 -0.001830    0.97   -165.35   
   119. D(H  24,O  11,C  10,H  23)    -46.89  0.005331   -1.21    -48.11   
   120. D(H  24,O  11,C  10,H  22)     69.62 -0.005486    1.43     71.05   
   121. D(H  24,O  11,C  10,C   8)   -168.40  0.000030    0.04   -168.36   
   122. D(H  25,C  12,C   8,C  10)   -141.04  0.000067    0.51   -140.52   
   123. D(H  25,C  12,C   8,O   9)    -17.94  0.001005   -0.05    -17.99   
   124. D(H  25,C  12,C   8,O   7)     97.36 -0.001431    1.51     98.88   
   125. D(C  14,C  12,C   8,C  10)    101.18 -0.001116    0.99    102.16   
   126. D(C  14,C  12,C   8,O   9)   -135.72 -0.000178    0.42   -135.30   
   127. D(C  14,C  12,C   8,O   7)    -20.42 -0.002613    1.98    -18.44   
   128. D(O  13,C  12,C   8,C  10)    -19.52  0.003149   -1.13    -20.65   
   129. D(O  13,C  12,C   8,O   9)    103.58  0.004087   -1.69    101.89   
   130. D(O  13,C  12,C   8,O   7)   -141.12  0.001651   -0.13   -141.25   
   131. D(H  26,O  13,C  12,H  25)    175.79  0.002573   -1.60    174.19   
   132. D(H  26,O  13,C  12,C  14)    -64.43 -0.001358   -0.68    -65.11   
   133. D(H  26,O  13,C  12,C   8)     51.91 -0.000295    0.42     52.33   
   134. D(H  27,C  14,C   6,O   7)     78.88 -0.000005    0.69     79.56   
   135. D(H  27,C  14,C   6,C   5)    -42.70 -0.000048    1.32    -41.38   
   136. D(O  15,C  14,C   6,H  20)    -42.63  0.000875    0.80    -41.83   
   137. D(O  15,C  14,C   6,O   7)   -158.84  0.000190    0.47   -158.37   
   138. D(O  15,C  14,C   6,C   5)     79.58  0.000147    1.10     80.68   
   139. D(C  12,C  14,C   6,H  20)     76.78 -0.003274    2.09     78.87   
   140. D(C  12,C  14,C   6,O   7)    -39.42 -0.003960    1.76    -37.66   
   141. D(H  27,C  14,C   6,H  20)   -164.91  0.000680    1.01   -163.90   
   142. D(C  12,C  14,C   6,C   5)   -161.01 -0.004003    2.40   -158.61   
   143. D(H  27,C  14,C  12,H  25)    157.65 -0.004169    1.10    158.75   
   144. D(H  27,C  14,C  12,C   8)    -84.30 -0.001596   -0.16    -84.46   
   145. D(O  15,C  14,C  12,H  25)     37.29  0.000919   -0.79     36.51   
   146. D(O  15,C  14,C  12,O  13)    -79.95  0.003904   -1.66    -81.61   
   147. D(O  15,C  14,C  12,C   8)    155.34  0.003492   -2.04    153.30   
   148. D(C   6,C  14,C  12,H  25)    -82.77  0.000003   -0.61    -83.37   
   149. D(H  27,C  14,C  12,O  13)     40.41 -0.001184    0.23     40.63   
   150. D(C   6,C  14,C  12,O  13)    159.99  0.002989   -1.48    158.51   
   151. D(C   6,C  14,C  12,C   8)     35.28  0.002577   -1.87     33.42   
   152. D(H  28,O  15,C  14,H  27)    -69.28  0.001814   -1.15    -70.43   
   153. D(H  28,O  15,C  14,C  12)     52.81  0.000593   -0.38     52.42   
   154. D(H  28,O  15,C  14,C   6)    165.80 -0.001876    0.50    166.29   
    ----------------------------------------------------------------------------

         *************************************************************
         *                GEOMETRY OPTIMIZATION CYCLE   2            *
         *************************************************************
---------------------------------
CARTESIAN COORDINATES (ANGSTROEM)
---------------------------------
  O     3.853365   -1.888083   -0.541931
  P     2.852768   -1.892429    0.544724
  O     2.172753   -3.310433    0.805395
  O     3.424356   -1.517227    1.982403
  O     1.595830   -0.932054    0.369867
  C     1.881096    0.433052    0.103317
  C     0.580649    1.205862   -0.047097
  O    -0.169790    0.706964   -1.156315
  C    -1.564209    0.898971   -0.919236
  O    -2.037052    1.855380   -1.838971
  C    -2.298102   -0.425171   -1.143668
  O    -2.102189   -1.304152   -0.039529
  C    -1.705234    1.451834    0.508547
  O    -2.798295    0.963129    1.252202
  C    -0.357002    1.085558    1.141181
  O     0.013092    1.955591    2.191665
  H     1.870721   -3.693056   -0.018783
  H     4.219070   -2.017078    2.170480
  H     2.462300    0.496207   -0.822923
  H     2.464720    0.853481    0.925762
  H     0.821393    2.260921   -0.236084
  H    -1.774958    1.544484   -2.714802
  H    -3.372092   -0.231142   -1.265209
  H    -1.915553   -0.894901   -2.057473
  H    -2.420313   -2.174237   -0.304226
  H    -1.827111    2.536407    0.472408
  H    -2.749743   -0.005878    1.210719
  H    -0.383602    0.056175    1.521181
  H    -0.737067    1.981625    2.800495

----------------------------
CARTESIAN COORDINATES (A.U.)
----------------------------
  NO LB    ZA    FRAG    MASS        X           Y           Z
   0 O   8.0000    0    15.999    7.281804   -3.567960   -1.024101
   1 P  15.0000    0    30.974    5.390950   -3.576172    1.029379
   2 O   8.0000    0    15.999    4.105909   -6.255812    1.521977
   3 O   8.0000    0    15.999    6.471094   -2.867143    3.746198
   4 O   8.0000    0    15.999    3.015682   -1.761327    0.698947
   5 C   6.0000    0    12.011    3.554756    0.818349    0.195242
   6 C   6.0000    0    12.011    1.097267    2.278748   -0.089001
   7 O   8.0000    0    15.999   -0.320856    1.335969   -2.185119
   8 C   6.0000    0    12.011   -2.955927    1.698808   -1.737104
   9 O   8.0000    0    15.999   -3.849471    3.506161   -3.475151
  10 C   6.0000    0    12.011   -4.342783   -0.803457   -2.161219
  11 O   8.0000    0    15.999   -3.972561   -2.464490   -0.074699
  12 C   6.0000    0    12.011   -3.222426    2.743569    0.961014
  13 O   8.0000    0    15.999   -5.288012    1.820051    2.366318
  14 C   6.0000    0    12.011   -0.674636    2.051408    2.156520
  15 O   8.0000    0    15.999    0.024739    3.695532    4.141646
  16 H   1.0000    0     1.008    3.535150   -6.978864   -0.035495
  17 H   1.0000    0     1.008    7.972888   -3.811725    4.101613
  18 H   1.0000    0     1.008    4.653072    0.937696   -1.555099
  19 H   1.0000    0     1.008    4.657646    1.612845    1.749437
  20 H   1.0000    0     1.008    1.552208    4.272521   -0.446134
  21 H   1.0000    0     1.008   -3.354185    2.918651   -5.130232
  22 H   1.0000    0     1.008   -6.372330   -0.436795   -2.390898
  23 H   1.0000    0     1.008   -3.619871   -1.691118   -3.888060
  24 H   1.0000    0     1.008   -4.573729   -4.108713   -0.574904
  25 H   1.0000    0     1.008   -3.452739    4.793114    0.892722
  26 H   1.0000    0     1.008   -5.196261   -0.011109    2.287928
  27 H   1.0000    0     1.008   -0.724902    0.106156    2.874616
  28 H   1.0000    0     1.008   -1.392855    3.744729    5.292169

      -----------------------------------------------------------      
     |                   =====================                   |     
     |                           x T B                           |     
     |                   =====================                   |     
     |                         S. Grimme                         |     
     |          Mulliken Center for Theoretical Chemistry        |     
     |                    University of Bonn                     |     
      -----------------------------------------------------------      

   * xtb version 6.5.1 (579679a) compiled by 'ehlert@majestix' on 2022-07-11

   xtb is free software: you can redistribute it and/or modify it under
   the terms of the GNU Lesser General Public License as published by
   the Free Software Foundation, either version 3 of the License, or
   (at your option) any later version.
   
   xtb is distributed in the hope that it will be useful,
   but WITHOUT ANY WARRANTY; without even the implied warranty of
   MERCHANTABILITY or FITNESS FOR A PARTICULAR PURPOSE.  See the
   GNU Lesser General Public License for more details.
   
   Cite this work as:
   * C. Bannwarth, E. Caldeweyher, S. Ehlert, A. Hansen, P. Pracht,
     J. Seibert, S. Spicher, S. Grimme, WIREs Comput. Mol. Sci., 2020, 11,
     e01493. DOI: 10.1002/wcms.1493
   
   for GFN2-xTB:
   * C. Bannwarth, S. Ehlert and S. Grimme., J. Chem. Theory Comput., 2019,
     15, 1652-1671. DOI: 10.1021/acs.jctc.8b01176
   for GFN1-xTB:
   * S. Grimme, C. Bannwarth, P. Shushkov, J. Chem. Theory Comput., 2017,
     13, 1989-2009. DOI: 10.1021/acs.jctc.7b00118
   for GFN0-xTB:
   * P. Pracht, E. Caldeweyher, S. Ehlert, S. Grimme, ChemRxiv, 2019, preprint.
     DOI: 10.26434/chemrxiv.8326202.v1
   for GFN-FF:
   * S. Spicher and S. Grimme, Angew. Chem. Int. Ed., 2020, 59, 15665-15673.
     DOI: 10.1002/anie.202004239
   
   for ALPB and GBSA implicit solvation:
   * S. Ehlert, M. Stahn, S. Spicher, S. Grimme, J. Chem. Theory Comput.,
     2021, 17, 4250-4261. DOI: 10.1021/acs.jctc.1c00471
   
   for DFT-D4:
   * E. Caldeweyher, C. Bannwarth and S. Grimme, J. Chem. Phys., 2017,
     147, 034112. DOI: 10.1063/1.4993215
   * E. Caldeweyher, S. Ehlert, A. Hansen, H. Neugebauer, S. Spicher,
     C. Bannwarth and S. Grimme, J. Chem. Phys., 2019, 150, 154122.
     DOI: 10.1063/1.5090222
   * E. Caldeweyher, J.-M. Mewes, S. Ehlert and S. Grimme, Phys. Chem. Chem. Phys.
     2020, 22, 8499-8512. DOI: 10.1039/D0CP00502A
   
   for sTDA-xTB:
   * S. Grimme and C. Bannwarth, J. Chem. Phys., 2016, 145, 054103.
     DOI: 10.1063/1.4959605
   
   in the mass-spec context:
   * V. Asgeirsson, C. Bauer and S. Grimme, Chem. Sci., 2017, 8, 4879.
     DOI: 10.1039/c7sc00601b
   * J. Koopman and S. Grimme, ACS Omega 2019, 4, 12, 15120-15133.
     DOI: 10.1021/acsomega.9b02011
   
   for metadynamics refer to:
   * S. Grimme, J. Chem. Theory Comput., 2019, 155, 2847-2862
     DOI: 10.1021/acs.jctc.9b00143
   
   for SPH calculations refer to:
   * S. Spicher and S. Grimme, J. Chem. Theory Comput., 2021, 17, 1701-1714
     DOI: 10.1021/acs.jctc.0c01306
   
   with help from (in alphabetical order)
   P. Atkinson, C. Bannwarth, F. Bohle, G. Brandenburg, E. Caldeweyher
   M. Checinski, S. Dohm, S. Ehlert, S. Ehrlich, I. Gerasimov, C. Hölzer
   A. Katbashev, J. Koopman, C. Lavigne, S. Lehtola, F. März, M. Müller,
   F. Musil, H. Neugebauer, J. Pisarek, C. Plett, P. Pracht, F. Pultar,
   J. Seibert, P. Shushkov, S. Spicher, M. Stahn, M. Steiner, T. Strunk,
   J. Stückrath, T. Rose, and J. Unsleber
   
 * started run on 2023/12/04 at 13:40:44.209     

           -------------------------------------------------
          |                Calculation Setup                |
           -------------------------------------------------

          program call               : otool_xtb /tmp/C00085_XTB.xyz --grad -c 0 -u 0 -P 1 --namespace /tmp/C00085 --input /tmp/C00085_XTB.input.tmp --acc 1.000000
          calculation namespace      : /tmp/C00085
          coordinate file            : /tmp/C00085_XTB.xyz
          omp threads                :                     1

   ID    Z sym.   atoms
    1    8 O      1, 3-5, 8, 10, 12, 14, 16
    2   15 P      2
    3    6 C      6, 7, 9, 11, 13, 15
    4    1 H      17-29

           -------------------------------------------------
          |                 G F N 2 - x T B                 |
           -------------------------------------------------

        Reference                      10.1021/acs.jctc.8b01176
      * Hamiltonian:
        H0-scaling (s, p, d)           1.850000    2.230000    2.230000
        zeta-weighting                 0.500000
      * Dispersion:
        s8                             2.700000
        a1                             0.520000
        a2                             5.000000
        s9                             5.000000
      * Repulsion:
        kExp                           1.500000    1.000000
        rExp                           1.000000
      * Coulomb:
        alpha                          2.000000
        third order                    shell-resolved
        anisotropic                    true
        a3                             3.000000
        a5                             4.000000
        cn-shift                       1.200000
        cn-exp                         4.000000
        max-rad                        5.000000

q/qsh data taken from xtbrestart
CAMM data taken from xtbrestart

          ...................................................
          :                      SETUP                      :
          :.................................................:
          :  # basis functions                  83          :
          :  # atomic orbitals                  82          :
          :  # shells                           46          :
          :  # electrons                        96          :
          :  max. iterations                   250          :
          :  Hamiltonian                  GFN2-xTB          :
          :  restarted?                       true          :
          :  GBSA solvation                  false          :
          :  PC potential                    false          :
          :  electronic temp.          300.0000000     K    :
          :  accuracy                    1.0000000          :
          :  -> integral cutoff          0.2500000E+02      :
          :  -> integral neglect         0.1000000E-07      :
          :  -> SCF convergence          0.1000000E-05 Eh   :
          :  -> wf. convergence          0.1000000E-03 e    :
          :  Broyden damping             0.4000000          :
          ...................................................

 iter      E             dE          RMSdq      gap      omega  full diag
   1    -59.1243758 -0.591244E+02  0.187E-01    9.38       0.0  T
   2    -59.1244071 -0.313591E-04  0.112E-01    9.38       1.0  T
   3    -59.1244053  0.186432E-05  0.229E-02    9.38       1.0  T
   4    -59.1244126 -0.734885E-05  0.652E-03    9.38       2.8  T
   5    -59.1244128 -0.160779E-06  0.327E-03    9.38       5.7  T
   6    -59.1244128 -0.192212E-07  0.103E-03    9.38      18.0  T
   7    -59.1244128 -0.274068E-08  0.363E-04    9.38      51.1  T
   8    -59.1244128 -0.373319E-09  0.107E-04    9.38     173.8  T

   *** convergence criteria satisfied after 8 iterations ***

         #    Occupation            Energy/Eh            Energy/eV
      -------------------------------------------------------------
         1        2.0000           -0.7447361             -20.2653
       ...           ...                  ...                  ...
        42        2.0000           -0.4464390             -12.1482
        43        2.0000           -0.4429683             -12.0538
        44        2.0000           -0.4374060             -11.9024
        45        2.0000           -0.4360369             -11.8652
        46        2.0000           -0.4306688             -11.7191
        47        2.0000           -0.4229843             -11.5100
        48        2.0000           -0.4099515             -11.1553 (HOMO)
        49                         -0.0653497              -1.7783 (LUMO)
        50                         -0.0437014              -1.1892
        51                         -0.0315657              -0.8589
        52                         -0.0223124              -0.6072
        53                         -0.0194886              -0.5303
       ...                                ...                  ...
        82                          1.1776774              32.0462
      -------------------------------------------------------------
                  HL-Gap            0.3446018 Eh            9.3771 eV
             Fermi-level           -0.2376506 Eh           -6.4668 eV

 SCC (total)                   0 d,  0 h,  0 min,  0.033 sec
 SCC setup                      ...        0 min,  0.000 sec (  0.588%)
 Dispersion                     ...        0 min,  0.000 sec (  0.727%)
 classical contributions        ...        0 min,  0.000 sec (  0.147%)
 integral evaluation            ...        0 min,  0.006 sec ( 16.618%)
 iterations                     ...        0 min,  0.011 sec ( 31.685%)
 molecular gradient             ...        0 min,  0.016 sec ( 49.669%)
 printout                       ...        0 min,  0.000 sec (  0.522%)

         :::::::::::::::::::::::::::::::::::::::::::::::::::::
         ::                     SUMMARY                     ::
         :::::::::::::::::::::::::::::::::::::::::::::::::::::
         :: total energy             -58.742088115046 Eh    ::
         :: gradient norm              0.043653028808 Eh/a0 ::
         :: HOMO-LUMO gap              9.377092478625 eV    ::
         ::.................................................::
         :: SCC energy               -59.124412817409 Eh    ::
         :: -> isotropic ES            0.225002011978 Eh    ::
         :: -> anisotropic ES         -0.007409419053 Eh    ::
         :: -> anisotropic XC         -0.008528039747 Eh    ::
         :: -> dispersion             -0.026244684837 Eh    ::
         :: repulsion energy           0.381928527003 Eh    ::
         :: add. restraining           0.000000000000 Eh    ::
         :: total charge              -0.000000000000 e     ::
         :::::::::::::::::::::::::::::::::::::::::::::::::::::


Property printout bound to 'properties.out'

           -------------------------------------------------
          | TOTAL ENERGY              -58.742088115046 Eh   |
          | GRADIENT NORM               0.043653028808 Eh/α |
          | HOMO-LUMO GAP               9.377092478625 eV   |
           -------------------------------------------------

------------------------------------------------------------------------
 * finished run on 2023/12/04 at 13:40:44.254     
------------------------------------------------------------------------
 total:
 * wall-time:     0 d,  0 h,  0 min,  0.045 sec
 *  cpu-time:     0 d,  0 h,  0 min,  0.044 sec
 * ratio c/w:     0.977 speedup
 SCF:
 * wall-time:     0 d,  0 h,  0 min,  0.033 sec
 *  cpu-time:     0 d,  0 h,  0 min,  0.032 sec
 * ratio c/w:     0.961 speedup


-------------------------   --------------------
FINAL SINGLE POINT ENERGY       -58.742088115050
-------------------------   --------------------

------------------------------------------------------------------------------
                         ORCA GEOMETRY RELAXATION STEP
------------------------------------------------------------------------------

Reading the OPT-File                    .... done
Getting information on internals        .... done
Copying old internal coords+grads       .... done
Making the new internal coordinates     .... (new redundants).... done
Validating the new internal coordinates .... (new redundants).... done
Calculating the B-matrix                .... done
Calculating the G,G- and P matrices     .... done
Transforming gradient to internals      .... done
Projecting the internal gradient        .... done
Number of atoms                         ....  29
Number of internal coordinates          .... 154
Current Energy                          ....   -58.742088115 Eh
Current gradient norm                   ....     0.043653029 Eh/bohr
Maximum allowed component of the step   ....  0.300
Current trust radius                    ....  0.300
Updating the Hessian (BFGS)             .... done
Forming the augmented Hessian           .... done
Diagonalizing the augmented Hessian     .... done
Last element of RFO vector              ....  0.960086455
Lowest eigenvalues of augmented Hessian:
 -0.004505121  0.010282628  0.011516800  0.012745662  0.013392493
Length of the computed step             ....  0.291331487
The final length of the internal step   ....  0.291331487
Converting the step to cartesian space:
 Initial RMS(Int)=    0.0234761602
Transforming coordinates:
 Iter   0:  RMS(Cart)=    0.0750236607 RMS(Int)=    0.0234317548
 Iter   1:  RMS(Cart)=    0.0023242866 RMS(Int)=    0.0009372657
 Iter   2:  RMS(Cart)=    0.0001309327 RMS(Int)=    0.0000538371
 Iter   3:  RMS(Cart)=    0.0000088735 RMS(Int)=    0.0000044596
 Iter   4:  RMS(Cart)=    0.0000005299 RMS(Int)=    0.0000002927
 Iter   5:  RMS(Cart)=    0.0000000411 RMS(Int)=    0.0000000246
done
Storing new coordinates                 .... done

                                .--------------------.
          ----------------------|Geometry convergence|-------------------------
          Item                value                   Tolerance       Converged
          ---------------------------------------------------------------------
          Energy change      -0.0069616091            0.0000050000      NO
          RMS gradient        0.0022379673            0.0001000000      NO
          MAX gradient        0.0149876232            0.0003000000      NO
          RMS step            0.0234761602            0.0020000000      NO
          MAX step            0.0724485961            0.0040000000      NO
          ........................................................
          Max(Bonds)      0.0190      Max(Angles)    1.79
          Max(Dihed)        4.15      Max(Improp)    0.00
          ---------------------------------------------------------------------

The optimization has not yet converged - more geometry cycles are needed


    ---------------------------------------------------------------------------
                         Redundant Internal Coordinates
                            (Angstroem and degrees)

        Definition                    Value    dE/dq     Step     New-Value
    ----------------------------------------------------------------------------
     1. B(P   1,O   0)                1.4772  0.014988 -0.0117    1.4655   
     2. B(O   2,P   1)                1.5941  0.001786 -0.0021    1.5920   
     3. B(O   3,P   1)                1.5920  0.001884 -0.0022    1.5897   
     4. B(O   4,P   1)                1.5915  0.004365 -0.0053    1.5862   
     5. B(C   5,O   4)                1.4198  0.000482 -0.0012    1.4186   
     6. B(C   6,C   5)                1.5202 -0.000054 -0.0009    1.5193   
     7. B(O   7,C   6)                1.4291  0.004330 -0.0108    1.4183   
     8. B(C   8,O   7)                1.4274  0.004614 -0.0123    1.4151   
     9. B(O   9,C   8)                1.4086  0.005100 -0.0117    1.3969   
    10. B(C  10,C   8)                1.5305 -0.003056  0.0043    1.5347   
    11. B(O  11,C  10)                1.4248  0.003838 -0.0078    1.4170   
    12. B(C  12,C   8)                1.5376 -0.004340  0.0073    1.5449   
    13. B(O  13,C  12)                1.4095  0.008516 -0.0190    1.3905   
    14. B(C  14,C  12)                1.5337 -0.002659  0.0093    1.5430   
    15. B(C  14,C   6)                1.5184 -0.001891  0.0060    1.5245   
    16. B(O  15,C  14)                1.4133  0.004789 -0.0101    1.4033   
    17. B(H  16,O   2)                0.9575  0.002045 -0.0068    0.9508   
    18. B(H  17,O   3)                0.9575  0.001692 -0.0060    0.9515   
    19. B(H  18,C   5)                1.0953  0.000552 -0.0013    1.0940   
    20. B(H  19,C   5)                1.0926  0.000039 -0.0006    1.0920   
    21. B(H  20,C   6)                1.0986 -0.000749  0.0019    1.1004   
    22. B(H  21,O   9)                0.9656  0.000476 -0.0021    0.9636   
    23. B(H  22,C  10)                1.0981 -0.000261  0.0012    1.0993   
    24. B(H  23,C  10)                1.0964  0.000184 -0.0003    1.0960   
    25. B(H  24,O  11)                0.9635  0.000977 -0.0040    0.9595   
    26. B(H  25,C  12)                1.0920 -0.000854  0.0010    1.0930   
    27. B(H  26,O  13)                0.9711  0.001092 -0.0039    0.9672   
    28. B(H  27,C  14)                1.0976 -0.000780  0.0022    1.0998   
    29. B(H  28,O  15)                0.9665  0.001391 -0.0044    0.9621   
    30. A(O   0,P   1,O   4)          116.90  0.000947   -0.46    116.43   
    31. A(O   3,P   1,O   4)          103.92  0.001851   -0.71    103.21   
    32. A(O   2,P   1,O   3)          102.42 -0.001784    0.66    103.08   
    33. A(O   0,P   1,O   2)          114.32 -0.002034    0.75    115.08   
    34. A(O   2,P   1,O   4)          102.58  0.001722   -0.49    102.10   
    35. A(O   0,P   1,O   3)          114.86 -0.000569    0.25    115.11   
    36. A(P   1,O   2,H  16)          110.44  0.001102   -0.28    110.16   
    37. A(P   1,O   3,H  17)          110.63  0.001095   -0.31    110.32   
    38. A(P   1,O   4,C   5)          116.24  0.001282   -0.31    115.93   
    39. A(O   4,C   5,H  18)          108.71 -0.000871    0.48    109.19   
    40. A(C   6,C   5,H  19)          109.62  0.001154   -0.66    108.96   
    41. A(O   4,C   5,C   6)          109.60  0.002130   -0.79    108.81   
    42. A(H  18,C   5,H  19)          109.32 -0.000207    0.28    109.61   
    43. A(O   4,C   5,H  19)          109.63 -0.001484    0.40    110.03   
    44. A(C   6,C   5,H  18)          109.93 -0.000751    0.31    110.25   
    45. A(C   5,C   6,C  14)          114.24 -0.000983   -0.04    114.20   
    46. A(O   7,C   6,H  20)          108.47 -0.001087    0.99    109.46   
    47. A(O   7,C   6,C  14)          104.80  0.000777   -0.09    104.71   
    48. A(C   5,C   6,O   7)          110.40  0.000286   -0.34    110.06   
    49. A(C  14,C   6,H  20)          110.25  0.001307   -0.69    109.55   
    50. A(C   5,C   6,H  20)          108.53 -0.000297    0.22    108.75   
    51. A(C   6,O   7,C   8)          109.70 -0.003966    1.52    111.22   
    52. A(O   7,C   8,C  12)          106.99  0.000416   -0.18    106.81   
    53. A(O   9,C   8,C  10)          109.31 -0.000090    0.13    109.44   
    54. A(O   7,C   8,O   9)          108.11 -0.001869    1.30    109.41   
    55. A(O   7,C   8,C  10)          109.13  0.001762   -0.88    108.25   
    56. A(C  10,C   8,C  12)          113.78 -0.002353    0.64    114.42   
    57. A(O   9,C   8,C  12)          109.35  0.002121   -0.96    108.39   
    58. A(C   8,O   9,H  21)          106.41 -0.006065    1.79    108.20   
    59. A(C   8,C  10,O  11)          110.74  0.001267   -0.62    110.12   
    60. A(H  22,C  10,H  23)          108.95 -0.001409    0.69    109.64   
    61. A(O  11,C  10,H  23)          109.49 -0.002029    0.91    110.40   
    62. A(C   8,C  10,H  23)          109.00  0.002595   -1.34    107.67   
    63. A(O  11,C  10,H  22)          109.22 -0.002830    1.47    110.69   
    64. A(C   8,C  10,H  22)          109.41  0.002376   -1.03    108.38   
    65. A(C  10,O  11,H  24)          107.39 -0.003708    1.10    108.49   
    66. A(C  14,C  12,H  25)          110.42 -0.000465   -0.51    109.91   
    67. A(O  13,C  12,H  25)          105.98  0.000590   -0.27    105.71   
    68. A(O  13,C  12,C  14)          112.41 -0.001928    1.70    114.12   
    69. A(C   8,C  12,H  25)          109.67  0.001275   -1.55    108.13   
    70. A(C   8,C  12,C  14)          102.51  0.001951    0.11    102.61   
    71. A(C   8,C  12,O  13)          115.87 -0.001392    0.47    116.34   
    72. A(C  12,O  13,H  26)          106.54 -0.002621    0.72    107.26   
    73. A(C  12,C  14,O  15)          112.94 -0.001967    1.13    114.07   
    74. A(O  15,C  14,H  27)          109.05 -0.002270    1.59    110.64   
    75. A(C  12,C  14,H  27)          110.21  0.001950   -0.99    109.23   
    76. A(C   6,C  14,O  15)          111.79  0.001547   -0.81    110.98   
    77. A(C   6,C  14,H  27)          111.11  0.001688   -1.58    109.54   
    78. A(C   6,C  14,C  12)          101.60 -0.000686    0.49    102.10   
    79. A(C  14,O  15,H  28)          106.35 -0.002982    0.82    107.18   
    80. D(H  16,O   2,P   1,O   3)   -173.71  0.001385    0.84   -172.87   
    81. D(H  16,O   2,P   1,O   0)    -48.82 -0.001766    2.01    -46.81   
    82. D(H  16,O   2,P   1,O   4)     78.74 -0.000570    1.54     80.28   
    83. D(H  17,O   3,P   1,O   4)   -177.29 -0.000922    3.63   -173.66   
    84. D(H  17,O   3,P   1,O   2)     76.19 -0.002755    4.15     80.34   
    85. D(H  17,O   3,P   1,O   0)    -48.35  0.001391    2.62    -45.72   
    86. D(C   5,O   4,P   1,O   3)     74.30  0.000063    2.85     77.15   
    87. D(C   5,O   4,P   1,O   2)   -179.29 -0.000730    3.17   -176.13   
    88. D(C   5,O   4,P   1,O   0)    -53.39 -0.001393    3.46    -49.93   
    89. D(H  18,C   5,O   4,P   1)     59.34  0.000159   -2.14     57.19   
    90. D(C   6,C   5,O   4,P   1)    179.52 -0.000012   -1.94    177.58   
    91. D(H  19,C   5,O   4,P   1)    -60.12  0.001810   -3.00    -63.11   
    92. D(O   7,C   6,C   5,H  19)    177.47 -0.000573    0.08    177.55   
    93. D(O   7,C   6,C   5,H  18)     57.27 -0.000572   -0.05     57.22   
    94. D(H  20,C   6,C   5,H  18)    -61.49  0.000764   -1.19    -62.68   
    95. D(H  20,C   6,C   5,H  19)     58.71  0.000764   -1.06     57.65   
    96. D(C  14,C   6,C   5,H  19)    -64.73 -0.000023   -0.30    -65.03   
    97. D(C  14,C   6,C   5,H  18)    175.07 -0.000023   -0.43    174.63   
    98. D(C  14,C   6,C   5,O   4)     55.64  0.000193   -0.73     54.90   
    99. D(O   7,C   6,C   5,O   4)    -62.16 -0.000357   -0.35    -62.51   
   100. D(H  20,C   6,C   5,O   4)    179.08  0.000980   -1.49    177.59   
   101. D(C   8,O   7,C   6,H  20)    -90.43 -0.000506   -0.37    -90.80   
   102. D(C   8,O   7,C   6,C  14)     27.32  0.000891   -0.75     26.58   
   103. D(C   8,O   7,C   6,C   5)    150.78  0.000349   -1.05    149.73   
   104. D(C  12,C   8,O   7,C   6)     -5.26  0.000221   -0.79     -6.05   
   105. D(C  10,C   8,O   7,C   6)   -128.79  0.001772   -0.92   -129.70   
   106. D(O   9,C   8,O   7,C   6)    112.42  0.001963   -1.33    111.08   
   107. D(H  21,O   9,C   8,C  12)    169.29  0.001379   -2.42    166.86   
   108. D(H  21,O   9,C   8,C  10)    -65.54 -0.000206   -2.19    -67.73   
[...]
                 84         85         86    
      0      -0.000005   0.000028   0.000019
      1       0.000002   0.000006  -0.000157
      2       0.000008  -0.000010   0.000258
      3       0.000010  -0.000041  -0.000335
      4      -0.000016  -0.000017  -0.000055
      5      -0.000011   0.000001   0.000159
      6      -0.000039   0.001290   0.000571
      7       0.000026  -0.000640   0.000005
      8      -0.000005   0.000351   0.000042
      9       0.000034  -0.000011  -0.057512
     10       0.000002  -0.000008  -0.001553
     11      -0.000016   0.000016   0.024574
     12      -0.000017   0.000021   0.000149
     13       0.000004   0.000007  -0.000453
     14       0.000017   0.000011  -0.000006
     15       0.000086  -0.000013   0.000032
     16       0.000112   0.000000   0.000268
     17       0.000033  -0.000001  -0.000074
     18       0.000020   0.000004  -0.000006
     19      -0.000057  -0.000021   0.000033
     20      -0.000214  -0.000018   0.000013
     21      -0.000006   0.000096   0.000053
     22      -0.000013   0.000068  -0.000016
     23       0.000009   0.000046  -0.000018
     24       0.000075   0.000051  -0.000076
     25       0.000023  -0.000104   0.000017
     26      -0.000052   0.000269  -0.000023
     27       0.000238   0.000095   0.000008
     28      -0.000101  -0.000055  -0.000010
     29      -0.000310  -0.000124   0.000017
     30      -0.000014  -0.000207   0.000013
     31      -0.000009  -0.001312  -0.000016
     32      -0.000007   0.000095  -0.000013
     33      -0.000006  -0.021952   0.000025
     34      -0.000013  -0.055166   0.000032
     35      -0.000002  -0.017537   0.000018
     36      -0.000154   0.000050  -0.000022
     37      -0.000051   0.000228  -0.000013
     38       0.000132  -0.000094   0.000011
     39       0.000061  -0.000948   0.000023
     40      -0.000161   0.002887  -0.000004
     41      -0.000052  -0.000244  -0.000008
     42       0.000820  -0.000022   0.000001
     43      -0.000698   0.000023  -0.000005
     44      -0.001077  -0.000042   0.000037
     45       0.046339  -0.000014   0.000029
     46      -0.004974  -0.000004  -0.000006
     47      -0.040857   0.000009  -0.000029
     48       0.000561  -0.022454  -0.003973
     49      -0.000401   0.008352   0.001062
     50       0.000083  -0.006362  -0.001161
     51      -0.000538   0.000392   0.914980
     52      -0.000051   0.000075   0.031288
     53       0.000251  -0.000174  -0.397364
     54      -0.000253   0.000061  -0.000122
     55      -0.000220   0.000047   0.000521
     56       0.000418  -0.000150  -0.000019
     57      -0.000950  -0.000015  -0.000156
     58      -0.000883   0.000140  -0.000220
     59      -0.001349   0.000102  -0.000227
     60      -0.000650  -0.000074   0.000053
     61      -0.003189   0.000123  -0.000183
     62       0.002754  -0.000175   0.000124
     63      -0.003863  -0.001689  -0.000011
     64       0.001656   0.000464   0.000015
     65       0.005594   0.002172  -0.000095
     66      -0.000040  -0.000548  -0.000050
     67      -0.000063   0.000618   0.000073
     68      -0.000001   0.000230   0.000001
     69      -0.000071   0.000471  -0.000047
     70       0.000171   0.001949   0.000103
     71       0.000259   0.002266   0.000178
     72       0.000123   0.351524  -0.000176
     73       0.000319   0.891881  -0.000446
     74       0.000124   0.271908  -0.000191
     75      -0.000650   0.000224  -0.000079
     76       0.000285  -0.000376   0.000065
     77      -0.000769  -0.000070  -0.000021
     78      -0.001089   0.014178  -0.000104
     79       0.001931  -0.048391   0.000177
     80      -0.000239   0.004765  -0.000021
     81      -0.000543   0.000217   0.000009
     82       0.000350  -0.000500   0.000089
     83       0.000114   0.000621  -0.000308
     84      -0.741883   0.000179  -0.000437
     85       0.091694  -0.000010   0.000099
     86       0.661271  -0.000165   0.000391


-----------
IR SPECTRUM
-----------

 Mode   freq       eps      Int      T**2         TX        TY        TZ
       cm**-1   L/(mol*cm) km/mol    a.u.
----------------------------------------------------------------------------
  6:     23.35   0.001945    9.83  0.025987  ( 0.024575  0.079937 -0.137817)
  7:     49.04   0.000875    4.42  0.005566  ( 0.048654 -0.056506  0.002329)
  8:     54.23   0.000397    2.01  0.002286  (-0.022663  0.025299 -0.033650)
  9:     99.04   0.000665    3.36  0.002097  (-0.001480  0.041284  0.019748)
 10:    118.30   0.000217    1.10  0.000573  (-0.021554 -0.008844  0.005512)
 11:    147.60   0.000362    1.83  0.000765  (-0.027070 -0.004648 -0.003301)
 12:    174.31   0.000871    4.40  0.001559  (-0.026387 -0.011357 -0.027085)
 13:    184.66   0.008884   44.90  0.015014  ( 0.023841 -0.086331 -0.083621)
 14:    205.95   0.006946   35.10  0.010525  ( 0.068683  0.057266  0.050281)
 15:    215.48   0.001943    9.82  0.002814  (-0.050026 -0.006568  0.016377)
 16:    232.20   0.000771    3.90  0.001037  (-0.008632  0.028607  0.011990)
 17:    256.59   0.006226   31.46  0.007572  ( 0.006326 -0.052815 -0.068867)
 18:    278.30   0.014516   73.36  0.016277  ( 0.118776  0.003536  0.046437)
 19:    283.20   0.003025   15.29  0.003334  (-0.034939 -0.038732  0.024756)
 20:    310.22   0.001554    7.85  0.001563  (-0.033254  0.006804 -0.020273)
 21:    318.52   0.022437  113.39  0.021982  (-0.143458 -0.026559  0.026392)
 22:    323.35   0.010666   53.90  0.010294  (-0.001202  0.049614  0.088491)
 23:    335.75   0.031467  159.02  0.029247  (-0.130077  0.072980 -0.083668)
 24:    362.02   0.007490   37.85  0.006456  (-0.065831  0.017871  0.042461)
 25:    391.32   0.005596   28.28  0.004462  (-0.006524  0.062802  0.021809)
 26:    404.33   0.015516   78.41  0.011975  ( 0.092481 -0.035802 -0.046267)
 27:    412.28   0.012524   63.29  0.009480  ( 0.080769 -0.016230  0.051889)
 28:    430.23   0.001920    9.70  0.001393  (-0.034886  0.004169  0.012585)
 29:    455.70   0.026937  136.13  0.018447  (-0.101690 -0.040510 -0.080403)
 30:    473.34   0.015283   77.23  0.010076  (-0.040567 -0.086924 -0.029565)
 31:    500.55   0.008001   40.43  0.004988  (-0.048587 -0.016062 -0.048677)
 32:    503.68   0.003419   17.28  0.002118  ( 0.026703  0.014954  0.034371)
 33:    535.71   0.006738   34.05  0.003925  (-0.041494 -0.045132  0.012911)
 34:    569.75   0.026547  134.16  0.014541  (-0.039010  0.040277  0.106754)
 35:    587.82   0.000643    3.25  0.000341  ( 0.007535 -0.014985 -0.007740)
 36:    626.51   0.002475   12.51  0.001233  (-0.011513 -0.022880  0.024019)
 37:    672.24   0.011281   57.01  0.005237  ( 0.011499  0.024059  0.067273)
 38:    731.38   0.033427  168.93  0.014263  (-0.041429  0.085052  0.072888)
 39:    824.42   0.022833  115.39  0.008643  ( 0.070836 -0.053543  0.027539)
 40:    826.85   0.015176   76.69  0.005728  ( 0.026521 -0.070548  0.006888)
 41:    875.39   0.073268  370.27  0.026119  (-0.136132 -0.048535 -0.072329)
 42:    899.19   0.009846   49.76  0.003417  (-0.011088  0.050066  0.028064)
 43:    904.16   0.000580    2.93  0.000200  ( 0.007352  0.006853  0.009958)
 44:    938.24   0.025740  130.08  0.008561  (-0.021779  0.089697 -0.006436)
 45:    945.20   0.063096  318.86  0.020832  ( 0.000706 -0.140621  0.032508)
 46:    958.00   0.010658   53.86  0.003472  ( 0.034812  0.042587  0.021125)
 47:   1003.08   0.006097   30.81  0.001897  (-0.005210  0.005910 -0.042835)
 48:   1044.53   0.033235  167.96  0.009929  (-0.093218  0.007677 -0.034364)
 49:   1065.48   0.008573   43.32  0.002511  ( 0.019923  0.017341 -0.042582)
 50:   1071.94   0.006825   34.49  0.001987  (-0.032456  0.011917 -0.028131)
 51:   1089.02   0.028728  145.18  0.008232  (-0.003660  0.067810 -0.060170)
 52:   1108.28   0.002700   13.65  0.000760  (-0.009194 -0.010853  0.023623)
 53:   1131.52   0.038891  196.54  0.010726  ( 0.041806  0.094323  0.009018)
 54:   1138.16   0.014824   74.91  0.004064  (-0.006790  0.001920  0.063362)
 55:   1141.03   0.002632   13.30  0.000720  ( 0.015755  0.002736 -0.021544)
 56:   1146.61   0.032823  165.88  0.008933  (-0.042090  0.084310 -0.007314)
 57:   1176.12   0.007647   38.64  0.002029  (-0.038709 -0.022281 -0.005841)
 58:   1190.29   0.001963    9.92  0.000515  (-0.015895  0.006234  0.014938)
 59:   1206.04   0.004074   20.59  0.001054  (-0.018996 -0.011648  0.023615)
 60:   1216.92   0.005803   29.33  0.001488  (-0.025745  0.007587  0.027709)
 61:   1232.22   0.007409   37.44  0.001876  (-0.001094  0.013397  0.041178)
 62:   1237.68   0.003099   15.66  0.000781  (-0.004540  0.005338  0.027062)
 63:   1261.31   0.069457  351.01  0.017184  ( 0.037084  0.042981 -0.118161)
 64:   1271.38   0.025810  130.43  0.006335  ( 0.017680  0.068478 -0.036514)
 65:   1275.87   0.004199   21.22  0.001027  (-0.009933  0.004557  0.030128)
 66:   1299.00   0.024134  121.96  0.005798  (-0.063032  0.041371 -0.010640)
 67:   1311.22   0.009840   49.73  0.002342  ( 0.019495  0.041050  0.016635)
 68:   1334.35   0.001706    8.62  0.000399  ( 0.000329  0.005539  0.019190)
 69:   1347.73   0.016657   84.18  0.003857  ( 0.037120  0.009487 -0.048878)
 70:   1356.49   0.004949   25.01  0.001139  (-0.001031  0.020621 -0.026688)
 71:   1357.97   0.002626   13.27  0.000603  (-0.023826  0.001930  0.005663)
 72:   1422.58   0.003666   18.53  0.000804  (-0.017952 -0.001529 -0.021900)
 73:   1450.21   0.004427   22.37  0.000953  ( 0.002010 -0.025879 -0.016697)
 74:   2862.48   0.008189   41.38  0.000893  (-0.012953  0.017541 -0.020427)
 75:   2896.38   0.012558   63.46  0.001353  ( 0.015429  0.022949 -0.024255)
 76:   2931.14   0.011633   58.79  0.001239  ( 0.018529 -0.025688 -0.015341)
 77:   2945.74   0.006671   33.71  0.000707  ( 0.010257  0.000310  0.024523)
 78:   2946.36   0.011529   58.26  0.001221  (-0.023088 -0.023453  0.011744)
 79:   2965.41   0.008753   44.23  0.000921  (-0.012362  0.025595 -0.010638)
 80:   2977.82   0.013596   68.71  0.001425  (-0.015301 -0.023339 -0.025417)
 81:   3335.97   0.111385  562.90  0.010420  (-0.092920  0.035882 -0.022313)
 82:   3458.41   0.014548   73.52  0.001313  (-0.004135 -0.034468 -0.010371)
 83:   3506.22   0.003856   19.49  0.000343  (-0.010066 -0.009052  0.012646)
 84:   3536.07   0.011941   60.35  0.001054  (-0.023218 -0.013251  0.018416)
 85:   3539.52   0.003829   19.35  0.000338  (-0.001854  0.017701  0.004561)
 86:   3631.49   0.016417   82.96  0.001411  ( 0.033711 -0.016028 -0.004170)

* The epsilon (eps) is given for a Dirac delta lineshape.
** The dipole moment derivative (T) already includes vibrational overlap.

The first frequency considered to be a vibration is 6
The total number of vibrations considered is 81


--------------------------
THERMOCHEMISTRY AT 298.15K
--------------------------

Temperature         ... 298.15 K
Pressure            ... 1.00 atm
Total Mass          ... 260.13 AMU

Throughout the following assumptions are being made:
  (1) The electronic state is orbitally nondegenerate
  (2) There are no thermally accessible electronically excited states
  (3) Hindered rotations indicated by low frequency modes are not
      treated as such but are treated as vibrations and this may
      cause some error
  (4) All equations used are the standard statistical mechanics
      equations for an ideal gas
  (5) All vibrations are strictly harmonic

freq.      23.35  E(vib)   ...       0.56 
freq.      49.04  E(vib)   ...       0.53 
freq.      54.23  E(vib)   ...       0.52 
freq.      99.04  E(vib)   ...       0.46 
freq.     118.30  E(vib)   ...       0.44 
freq.     147.60  E(vib)   ...       0.41 
freq.     174.31  E(vib)   ...       0.38 
freq.     184.66  E(vib)   ...       0.37 
freq.     205.95  E(vib)   ...       0.35 
freq.     215.48  E(vib)   ...       0.34 
freq.     232.20  E(vib)   ...       0.32 
freq.     256.59  E(vib)   ...       0.30 
freq.     278.30  E(vib)   ...       0.28 
freq.     283.20  E(vib)   ...       0.28 
freq.     310.22  E(vib)   ...       0.26 
freq.     318.52  E(vib)   ...       0.25 
freq.     323.35  E(vib)   ...       0.25 
freq.     335.75  E(vib)   ...       0.24 
freq.     362.02  E(vib)   ...       0.22 
freq.     391.32  E(vib)   ...       0.20 
freq.     404.33  E(vib)   ...       0.19 
freq.     412.28  E(vib)   ...       0.19 
freq.     430.23  E(vib)   ...       0.18 
freq.     455.70  E(vib)   ...       0.16 
freq.     473.34  E(vib)   ...       0.15 
freq.     500.55  E(vib)   ...       0.14 
freq.     503.68  E(vib)   ...       0.14 
freq.     535.71  E(vib)   ...       0.12 
freq.     569.75  E(vib)   ...       0.11 
freq.     587.82  E(vib)   ...       0.10 
freq.     626.51  E(vib)   ...       0.09 
freq.     672.24  E(vib)   ...       0.08 
freq.     731.38  E(vib)   ...       0.06 
freq.     824.42  E(vib)   ...       0.04 
freq.     826.85  E(vib)   ...       0.04 
freq.     875.39  E(vib)   ...       0.04 
freq.     899.19  E(vib)   ...       0.03 
freq.     904.16  E(vib)   ...       0.03 
freq.     938.24  E(vib)   ...       0.03 
freq.     945.20  E(vib)   ...       0.03 
freq.     958.00  E(vib)   ...       0.03 
freq.    1003.08  E(vib)   ...       0.02 
freq.    1044.53  E(vib)   ...       0.02 
freq.    1065.48  E(vib)   ...       0.02 
freq.    1071.94  E(vib)   ...       0.02 
freq.    1089.02  E(vib)   ...       0.02 
freq.    1108.28  E(vib)   ...       0.02 
freq.    1131.52  E(vib)   ...       0.01 
freq.    1138.16  E(vib)   ...       0.01 
freq.    1141.03  E(vib)   ...       0.01 
freq.    1146.61  E(vib)   ...       0.01 
freq.    1176.12  E(vib)   ...       0.01 
freq.    1190.29  E(vib)   ...       0.01 
freq.    1206.04  E(vib)   ...       0.01 
freq.    1216.92  E(vib)   ...       0.01 
freq.    1232.22  E(vib)   ...       0.01 
freq.    1237.68  E(vib)   ...       0.01 
freq.    1261.31  E(vib)   ...       0.01 
freq.    1271.38  E(vib)   ...       0.01 
freq.    1275.87  E(vib)   ...       0.01 
freq.    1299.00  E(vib)   ...       0.01 
freq.    1311.22  E(vib)   ...       0.01 
freq.    1334.35  E(vib)   ...       0.01 
freq.    1347.73  E(vib)   ...       0.01 
freq.    1356.49  E(vib)   ...       0.01 
freq.    1357.97  E(vib)   ...       0.01 
freq.    1422.58  E(vib)   ...       0.00 
freq.    1450.21  E(vib)   ...       0.00 
freq.    2862.48  E(vib)   ...       0.00 
freq.    2896.38  E(vib)   ...       0.00 
freq.    2931.14  E(vib)   ...       0.00 
freq.    2945.74  E(vib)   ...       0.00 
freq.    2946.36  E(vib)   ...       0.00 
freq.    2965.41  E(vib)   ...       0.00 
freq.    2977.82  E(vib)   ...       0.00 
freq.    3335.97  E(vib)   ...       0.00 
freq.    3458.41  E(vib)   ...       0.00 
freq.    3506.22  E(vib)   ...       0.00 
freq.    3536.07  E(vib)   ...       0.00 
freq.    3539.52  E(vib)   ...       0.00 
freq.    3631.49  E(vib)   ...       0.00 

------------
INNER ENERGY
------------

The inner energy is: U= E(el) + E(ZPE) + E(vib) + E(rot) + E(trans)
    E(el)   - is the total energy from the electronic structure calculation
              = E(kin-el) + E(nuc-el) + E(el-el) + E(nuc-nuc)
    E(ZPE)  - the the zero temperature vibrational energy from the frequency calculation
    E(vib)  - the the finite temperature correction to E(ZPE) due to population
              of excited vibrational states
    E(rot)  - is the rotational thermal energy
    E(trans)- is the translational thermal energy

Summary of contributions to the inner energy U:
Electronic energy                ...    -58.76109376 Eh
Zero point energy                ...      0.21154706 Eh     132.75 kcal/mol
Thermal vibrational correction   ...      0.01469164 Eh       9.22 kcal/mol
Thermal rotational correction    ...      0.00141627 Eh       0.89 kcal/mol
Thermal translational correction ...      0.00141627 Eh       0.89 kcal/mol
-----------------------------------------------------------------------
Total thermal energy                    -58.53202252 Eh


Summary of corrections to the electronic energy:
(perhaps to be used in another calculation)
Total thermal correction                  0.01752418 Eh      11.00 kcal/mol
Non-thermal (ZPE) correction              0.21154706 Eh     132.75 kcal/mol
-----------------------------------------------------------------------
Total correction                          0.22907124 Eh     143.74 kcal/mol


--------
ENTHALPY
--------

The enthalpy is H = U + kB*T
                kB is Boltzmann's constant
Total free energy                 ...    -58.53202252 Eh 
Thermal Enthalpy correction       ...      0.00094421 Eh       0.59 kcal/mol
-----------------------------------------------------------------------
Total Enthalpy                    ...    -58.53107832 Eh


Note: Only C1 symmetry has been detected, increase convergence thresholds 
      if your molecule has a higher symmetry. Symmetry factor of 1.0 is   
      used for the rotational entropy correction. 
 

Note: Rotational entropy computed according to Herzberg 
Infrared and Raman Spectra, Chapter V,1, Van Nostrand Reinhold, 1945 
Point Group:  C1, Symmetry Number:   1  
Rotational constants in cm-1:     0.024816     0.012510     0.010719 

Vibrational entropy computed according to the QRRHO of S. Grimme
Chem.Eur.J. 2012 18 9955


-------
ENTROPY
-------

The entropy contributions are T*S = T*(S(el)+S(vib)+S(rot)+S(trans))
     S(el)   - electronic entropy
     S(vib)  - vibrational entropy
     S(rot)  - rotational entropy
     S(trans)- translational entropy
The entropies will be listed as multiplied by the temperature to get
units of energy

Electronic entropy                ...      0.00000000 Eh      0.00 kcal/mol
Vibrational entropy               ...      0.02538639 Eh     15.93 kcal/mol
Rotational entropy                ...      0.01546541 Eh      9.70 kcal/mol
Translational entropy             ...      0.02022524 Eh     12.69 kcal/mol
-----------------------------------------------------------------------
Final entropy term                ...      0.06107704 Eh     38.33 kcal/mol

In case the symmetry of your molecule has not been determined correctly
or in case you have a reason to use a different symmetry number we print 
out the resulting rotational entropy values for sn=1,12 :
 --------------------------------------------------------
|  sn= 1 | S(rot)=       0.01546541 Eh      9.70 kcal/mol|
|  sn= 2 | S(rot)=       0.01481095 Eh      9.29 kcal/mol|
|  sn= 3 | S(rot)=       0.01442812 Eh      9.05 kcal/mol|
|  sn= 4 | S(rot)=       0.01415649 Eh      8.88 kcal/mol|
|  sn= 5 | S(rot)=       0.01394581 Eh      8.75 kcal/mol|
|  sn= 6 | S(rot)=       0.01377366 Eh      8.64 kcal/mol|
|  sn= 7 | S(rot)=       0.01362812 Eh      8.55 kcal/mol|
|  sn= 8 | S(rot)=       0.01350204 Eh      8.47 kcal/mol|
|  sn= 9 | S(rot)=       0.01339083 Eh      8.40 kcal/mol|
|  sn=10 | S(rot)=       0.01329135 Eh      8.34 kcal/mol|
|  sn=11 | S(rot)=       0.01320136 Eh      8.28 kcal/mol|
|  sn=12 | S(rot)=       0.01311921 Eh      8.23 kcal/mol|
 --------------------------------------------------------


-------------------
GIBBS FREE ENERGY
-------------------

The Gibbs free energy is G = H - T*S

Total enthalpy                    ...    -58.53107832 Eh 
Total entropy correction          ...     -0.06107704 Eh    -38.33 kcal/mol
-----------------------------------------------------------------------
Final Gibbs free energy         ...    -58.59215536 Eh

For completeness - the Gibbs free energy minus the electronic energy
G-E(el)                           ...      0.16893841 Eh    106.01 kcal/mol



Timings for individual modules:

Sum of individual times         ...      431.433 sec (=   7.191 min)
Geometry relaxation             ...        4.435 sec (=   0.074 min)   1.0 %
Numerical frequency calculation ...      423.661 sec (=   7.061 min)  98.2 %
XTB module                      ...        3.337 sec (=   0.056 min)   0.8 %
                             ****ORCA TERMINATED NORMALLY****
TOTAL RUN TIME: 0 days 0 hours 7 minutes 14 seconds 954 msec
