
                                 *****************
                                 * O   R   C   A *
                                 *****************

                                            #,                                       
                                            ###                                      
                                            ####                                     
                                            #####                                    
                                            ######                                   
                                           ########,                                 
                                     ,,################,,,,,                         
                               ,,#################################,,                 
                          ,,##########################################,,             
                       ,#########################################, ''#####,          
                    ,#############################################,,   '####,        
                  ,##################################################,,,,####,       
                ,###########''''           ''''###############################       
              ,#####''   ,,,,##########,,,,          '''####'''          '####       
            ,##' ,,,,###########################,,,                        '##       
           ' ,,###''''                  '''############,,,                           
         ,,##''                                '''############,,,,        ,,,,,,###''
      ,#''                                            '''#######################'''  
     '                                                          ''''####''''         
             ,#######,   #######,   ,#######,      ##                                
            ,#'     '#,  ##    ##  ,#'     '#,    #''#        ######   ,####,        
            ##       ##  ##   ,#'  ##            #'  '#       #        #'  '#        
            ##       ##  #######   ##           ,######,      #####,   #    #        
            '#,     ,#'  ##    ##  '#,     ,#' ,#      #,         ##   #,  ,#        
             '#######'   ##     ##  '#######'  #'      '#     #####' # '####'        



                  #######################################################
                  #                        -***-                        #
                  #          Department of theory and spectroscopy      #
                  #    Directorship and core code : Frank Neese         #
                  #        Max Planck Institute fuer Kohlenforschung    #
                  #                Kaiser Wilhelm Platz 1               #
                  #                 D-45470 Muelheim/Ruhr               #
                  #                      Germany                        #
                  #                                                     #
                  #                  All rights reserved                #
                  #                        -***-                        #
                  #######################################################


                         Program Version 5.0.3 -  RELEASE  -


 With contributions from (in alphabetic order):
   Daniel Aravena         : Magnetic Suceptibility
   Michael Atanasov       : Ab Initio Ligand Field Theory (pilot matlab implementation)
   Alexander A. Auer      : GIAO ZORA, VPT2 properties, NMR spectrum
   Ute Becker             : Parallelization
   Giovanni Bistoni       : ED, misc. LED, open-shell LED, HFLD
   Martin Brehm           : Molecular dynamics
   Dmytro Bykov           : SCF Hessian
   Vijay G. Chilkuri      : MRCI spin determinant printing, contributions to CSF-ICE
   Dipayan Datta          : RHF DLPNO-CCSD density
   Achintya Kumar Dutta   : EOM-CC, STEOM-CC
   Dmitry Ganyushin       : Spin-Orbit,Spin-Spin,Magnetic field MRCI
   Miquel Garcia          : C-PCM and meta-GGA Hessian, CC/C-PCM, Gaussian charge scheme
   Yang Guo               : DLPNO-NEVPT2, F12-NEVPT2, CIM, IAO-localization
   Andreas Hansen         : Spin unrestricted coupled pair/coupled cluster methods
   Benjamin Helmich-Paris : MC-RPA, TRAH-SCF, COSX integrals
   Lee Huntington         : MR-EOM, pCC
   Robert Izsak           : Overlap fitted RIJCOSX, COSX-SCS-MP3, EOM
   Marcus Kettner         : VPT2
   Christian Kollmar      : KDIIS, OOCD, Brueckner-CCSD(T), CCSD density, CASPT2, CASPT2-K
   Simone Kossmann        : Meta GGA functionals, TD-DFT gradient, OOMP2, MP2 Hessian
   Martin Krupicka        : Initial AUTO-CI
   Lucas Lang             : DCDCAS
   Marvin Lechner         : AUTO-CI (C++ implementation), FIC-MRCC
   Dagmar Lenk            : GEPOL surface, SMD
   Dimitrios Liakos       : Extrapolation schemes; Compound Job, initial MDCI parallelization
   Dimitrios Manganas     : Further ROCIS development; embedding schemes
   Dimitrios Pantazis     : SARC Basis sets
   Anastasios Papadopoulos: AUTO-CI, single reference methods and gradients
   Taras Petrenko         : DFT Hessian,TD-DFT gradient, ASA, ECA, R-Raman, ABS, FL, XAS/XES, NRVS
   Peter Pinski           : DLPNO-MP2, DLPNO-MP2 Gradient
   Christoph Reimann      : Effective Core Potentials
   Marius Retegan         : Local ZFS, SOC
   Christoph Riplinger    : Optimizer, TS searches, QM/MM, DLPNO-CCSD(T), (RO)-DLPNO pert. Triples
   Tobias Risthaus        : Range-separated hybrids, TD-DFT gradient, RPA, STAB
   Michael Roemelt        : Original ROCIS implementation
   Masaaki Saitow         : Open-shell DLPNO-CCSD energy and density
   Barbara Sandhoefer     : DKH picture change effects
   Avijit Sen             : IP-ROCIS
   Kantharuban Sivalingam : CASSCF convergence, NEVPT2, FIC-MRCI
   Bernardo de Souza      : ESD, SOC TD-DFT
   Georgi Stoychev        : AutoAux, RI-MP2 NMR, DLPNO-MP2 response
   Willem Van den Heuvel  : Paramagnetic NMR
   Boris Wezisla          : Elementary symmetry handling
   Frank Wennmohs         : Technical directorship


 We gratefully acknowledge several colleagues who have allowed us to
 interface, adapt or use parts of their codes:
   Stefan Grimme, W. Hujo, H. Kruse, P. Pracht,  : VdW corrections, initial TS optimization,
                  C. Bannwarth, S. Ehlert          DFT functionals, gCP, sTDA/sTD-DF
   Ed Valeev, F. Pavosevic, A. Kumar             : LibInt (2-el integral package), F12 methods
   Garnet Chan, S. Sharma, J. Yang, R. Olivares  : DMRG
   Ulf Ekstrom                                   : XCFun DFT Library
   Mihaly Kallay                                 : mrcc  (arbitrary order and MRCC methods)
   Jiri Pittner, Ondrej Demel                    : Mk-CCSD
   Frank Weinhold                                : gennbo (NPA and NBO analysis)
   Christopher J. Cramer and Donald G. Truhlar   : smd solvation model
   Lars Goerigk                                  : TD-DFT with DH, B97 family of functionals
   V. Asgeirsson, H. Jonsson                     : NEB implementation
   FAccTs GmbH                                   : IRC, NEB, NEB-TS, DLPNO-Multilevel, CI-OPT
                                                   MM, QMMM, 2- and 3-layer-ONIOM, Crystal-QMMM,
                                                   LR-CPCM, SF, NACMEs, symmetry and pop. for TD-DFT,
                                                   nearIR, NL-DFT gradient (VV10), updates on ESD,
                                                   ML-optimized integration grids
   S Lehtola, MJT Oliveira, MAL Marques          : LibXC Library
   Liviu Ungur et al                             : ANISO software


 Your calculation uses the libint2 library for the computation of 2-el integrals
 For citations please refer to: http://libint.valeyev.net

 Your ORCA version has been built with support for libXC version: 5.1.0
 For citations please refer to: https://tddft.org/programs/libxc/

 This ORCA versions uses:
   CBLAS   interface :  Fast vector & matrix operations
   LAPACKE interface :  Fast linear algebra routines
   SCALAPACK package :  Parallel linear algebra routines
   Shared memory     :  Shared parallel matrices
   BLAS/LAPACK       :  OpenBLAS 0.3.15  USE64BITINT DYNAMIC_ARCH NO_AFFINITY Haswell SINGLE_THREADED
        Core in use  :  Haswell
   Copyright (c) 2011-2014, The OpenBLAS Project


Your calculation utilizes the semiempirical GFN2-xTB method
Please cite in your paper:
C. Bannwarth, Ehlert S., S. Grimme,  J. Chem. Theory Comput., 15, (2019), 1652.
   

================================================================================

================================================================================
                                        WARNINGS
                       Please study these warnings very carefully!
================================================================================


WARNING: Geometry Optimization
  ===> : Switching off AutoStart
         For restart on a previous wavefunction, please use MOREAD

WARNING: Found dipole moment calculation with XTB calculation
  ===> : Switching off dipole moment calculation


WARNING: TRAH-SCF for XTB is not implemented!
  ===> : Turning TRAH off!

================================================================================
                                       INPUT FILE
================================================================================
NAME = /tmp/C00199.inp
|  1> ! XTB2 opt numfreq
|  2> * XYZ 0 1
|  3> O 2.3214 0.8821 -0.4672
|  4> C 1.9476 -0.0777 0.2168
|  5> C 2.6457 -0.4397 1.5201
|  6> O 3.4917 0.6082 1.9705
|  7> C 0.8208 -1.0046 -0.2271
|  8> O 1.4219 -2.1789 -0.7802
|  9> C -0.0898 -0.3499 -1.2821
| 10> O 0.6639 -0.0972 -2.4801
| 11> C -0.7895 0.9275 -0.8036
| 12> O -1.3971 0.7443 0.4638
| 13> P -2.9279 0.2839 0.4818
| 14> O -3.2603 -0.9244 -0.3189
| 15> O -3.7607 1.5985 0.1486
| 16> O -3.2698 0.0898 2.0270
| 17> H 1.8979 -0.6259 2.2951
| 18> H 3.2493 -1.3378 1.3646
| 19> H 3.8723 1.0200 1.1701
| 20> H 0.2364 -1.2986 0.6506
| 21> H 1.5797 -1.9806 -1.7271
| 22> H -0.8490 -1.0889 -1.5621
| 23> H 1.3522 0.5643 -2.2514
| 24> H -1.5292 1.2504 -1.5463
| 25> H -0.0808 1.7577 -0.7204
| 26> H -3.6082 2.2917 0.8159
| 27> H -3.9384 -0.6142 2.1320
| 28> *
| 29> 
| 30>                          ****END OF INPUT****
================================================================================

                       *****************************
                       * Geometry Optimization Run *
                       *****************************

Geometry optimization settings:
Update method            Update   .... BFGS
Choice of coordinates    CoordSys .... Z-matrix Internals
Initial Hessian          InHess   .... Almoef's Model

Convergence Tolerances:
Energy Change            TolE     ....  5.0000e-06 Eh
Max. Gradient            TolMAXG  ....  3.0000e-04 Eh/bohr
RMS Gradient             TolRMSG  ....  1.0000e-04 Eh/bohr
Max. Displacement        TolMAXD  ....  4.0000e-03 bohr
RMS Displacement         TolRMSD  ....  2.0000e-03 bohr
Strict Convergence                ....  False
------------------------------------------------------------------------------
                        ORCA OPTIMIZATION COORDINATE SETUP
------------------------------------------------------------------------------

The optimization will be done in new redundant internal coordinates
Making redundant internal coordinates   ...  (new redundants) done
Evaluating the initial hessian          ...  (Almloef) done
Evaluating the coordinates              ...  done
Calculating the B-matrix                .... done
Calculating the G-matrix                .... done
Diagonalizing the G-matrix              .... done
Small eigenvalue found = 8.997e-03
Small eigenvalue found = 1.196e-02
Small eigenvalue found = 1.813e-02
The first mode is                       ....   45
The number of degrees of freedom        ....   69

    -----------------------------------------------------------------
                    Redundant Internal Coordinates


    -----------------------------------------------------------------
         Definition                    Initial Value    Approx d2E/dq
    -----------------------------------------------------------------
      1. B(C   1,O   0)                  1.2364         0.983697   
      2. B(C   2,C   1)                  1.5222         0.384487   
      3. B(O   3,C   2)                  1.4201         0.501026   
      4. B(C   4,C   1)                  1.5251         0.380388   
      5. B(O   5,C   4)                  1.4305         0.482304   
      6. B(C   6,C   4)                  1.5398         0.360423   
      7. B(O   7,C   6)                  1.4377         0.469563   
      8. B(C   8,C   6)                  1.5331         0.369390   
      9. B(O   9,C   8)                  1.4174         0.505999   
     10. B(P  10,O   9)                  1.5986         0.873981   
     11. B(O  11,P  10)                  1.4871         1.316380   
     12. B(O  12,P  10)                  1.5915         0.897325   
     13. B(O  13,P  10)                  1.5944         0.887587   
     14. B(H  14,C   2)                  1.0929         0.356242   
     15. B(H  15,C   2)                  1.0932         0.355885   
     16. B(H  16,O   3)                  0.9773         0.487975   
     17. B(H  17,C   4)                  1.0947         0.353966   
     18. B(H  18,O   5)                  0.9802         0.482722   
     19. B(H  19,C   6)                  1.0959         0.352433   
     20. B(H  20,O   7)                  0.9817         0.480198   
     21. B(H  21,C   8)                  1.0968         0.351184   
     22. B(H  22,C   8)                  1.0947         0.353911   
     23. B(H  23,O  12)                  0.9742         0.493522   
     24. B(H  24,O  13)                  0.9766         0.489270   
     25. A(C   2,C   1,C   4)          116.3292         0.366277   
     26. A(O   0,C   1,C   2)          121.3065         0.429973   
     27. A(O   0,C   1,C   4)          122.2853         0.429147   
     28. A(O   3,C   2,H  14)          107.9644         0.337808   
     29. A(C   1,C   2,H  15)          109.0752         0.325227   
     30. A(C   1,C   2,H  14)          109.5035         0.325281   
     31. A(C   1,C   2,O   3)          111.6717         0.381687   
     32. A(O   3,C   2,H  15)          108.8081         0.337751   
     33. A(H  14,C   2,H  15)          109.7967         0.289812   
     34. A(C   2,O   3,H  16)          106.4504         0.353060   
     35. A(C   1,C   4,C   6)          112.2072         0.362250   
     36. A(C   1,C   4,H  17)          108.9228         0.324366   
     37. A(C   1,C   4,O   5)          107.5179         0.378472   
     38. A(C   6,C   4,H  17)          110.3554         0.321512   
     39. A(O   5,C   4,C   6)          109.4290         0.374961   
     40. A(O   5,C   4,H  17)          108.2929         0.335315   
     41. A(C   4,O   5,H  18)          105.9672         0.350153   
     42. A(O   7,C   6,H  19)          105.5929         0.333586   
     43. A(C   4,C   6,H  19)          107.3401         0.321283   
     44. A(C   4,C   6,O   7)          109.6109         0.373233   
     45. A(O   7,C   6,C   8)          110.6636         0.374819   
     46. A(C   4,C   6,C   8)          114.2266         0.360442   
     47. A(C   8,C   6,H  19)          108.9929         0.322579   
     48. A(C   6,O   7,H  20)          106.9705         0.348268   
     49. A(C   6,C   8,O   9)          111.5331         0.379694   
     50. A(H  21,C   8,H  22)          105.3549         0.288911   
     51. A(O   9,C   8,H  22)          107.9131         0.337994   
     52. A(C   6,C   8,H  22)          111.1094         0.322800   
     53. A(O   9,C   8,H  21)          110.7584         0.337559   
     54. A(C   6,C   8,H  21)          109.9837         0.322391   
     55. A(C   8,O   9,P  10)          117.2434         0.469676   
     56. A(O  11,P  10,O  12)          116.1970         0.605633   
     57. A(O   9,P  10,O  12)          105.1197         0.559892   
     58. A(O   9,P  10,O  11)          116.2292         0.602560   
     59. A(O  12,P  10,O  13)          101.0257         0.561541   
     60. A(O  11,P  10,O  13)          112.0212         0.604359   
     61. A(O   9,P  10,O  13)          104.5548         0.558731   
     62. A(P  10,O  12,H  23)          111.2503         0.417209   
     63. A(P  10,O  13,H  24)          109.8021         0.415759   
     64. D(O   3,C   2,C   1,O   0)     14.3181         0.011016   
     65. D(O   3,C   2,C   1,C   4)   -168.8411         0.011016   
     66. D(H  14,C   2,C   1,O   0)    133.8451         0.011016   
     67. D(H  15,C   2,C   1,O   0)   -105.9793         0.011016   
     68. D(H  15,C   2,C   1,C   4)     70.8614         0.011016   
     69. D(H  14,C   2,C   1,C   4)    -49.3142         0.011016   
     70. D(H  16,O   3,C   2,C   1)    -35.2974         0.019848   
     71. D(H  16,O   3,C   2,H  15)     85.1565         0.019848   
     72. D(H  16,O   3,C   2,H  14)   -155.7292         0.019848   
     73. D(H  17,C   4,C   1,O   0)   -143.1826         0.010796   
     74. D(C   6,C   4,C   1,O   0)    -20.6941         0.010796   
     75. D(C   6,C   4,C   1,C   2)    162.4988         0.010796   
     76. D(O   5,C   4,C   1,C   2)    -77.1288         0.010796   
     77. D(H  17,C   4,C   1,C   2)     40.0104         0.010796   
     78. D(O   5,C   4,C   1,O   0)     99.6783         0.010796   
     79. D(H  18,O   5,C   4,H  17)    155.1718         0.018354   
     80. D(H  18,O   5,C   4,C   6)     34.8350         0.018354   
     81. D(H  18,O   5,C   4,C   1)    -87.2789         0.018354   
     82. D(H  19,C   6,C   4,O   5)     59.2392         0.010420   
     83. D(H  19,C   6,C   4,C   1)    178.4974         0.010420   
     84. D(C   8,C   6,C   4,H  17)     61.1257         0.010420   
     85. D(C   8,C   6,C   4,O   5)   -179.8054         0.010420   
     86. D(C   8,C   6,C   4,C   1)    -60.5471         0.010420   
     87. D(O   7,C   6,C   4,H  17)   -174.0463         0.010420   
     88. D(O   7,C   6,C   4,O   5)    -54.9774         0.010420   
     89. D(H  19,C   6,C   4,H  17)    -59.8297         0.010420   
     90. D(O   7,C   6,C   4,C   1)     64.2808         0.010420   
     91. D(H  20,O   7,C   6,H  19)   -179.9869         0.017379   
     92. D(H  20,O   7,C   6,C   8)     62.2143         0.017379   
     93. D(H  20,O   7,C   6,C   4)    -64.6514         0.017379   
     94. D(O   9,C   8,C   6,C   4)    -48.2624         0.010910   
     95. D(H  22,C   8,C   6,O   7)    -52.0811         0.010910   
     96. D(H  22,C   8,C   6,C   4)     72.1862         0.010910   
     97. D(H  21,C   8,C   6,H  19)    -51.5210         0.010910   
     98. D(H  21,C   8,C   6,O   7)     64.1773         0.010910   
     99. D(H  21,C   8,C   6,C   4)   -171.5555         0.010910   
    100. D(O   9,C   8,C   6,H  19)     71.7720         0.010910   
    101. D(H  22,C   8,C   6,H  19)   -167.7793         0.010910   
    102. D(O   9,C   8,C   6,O   7)   -172.5297         0.010910   
    103. D(P  10,O   9,C   8,H  22)    145.4372         0.020257   
    104. D(P  10,O   9,C   8,H  21)     30.5945         0.020257   
    105. D(P  10,O   9,C   8,C   6)    -92.2567         0.020257   
    106. D(O  13,P  10,O   9,C   8)    176.7733         0.013215   
    107. D(O  12,P  10,O   9,C   8)    -77.2750         0.013215   
    108. D(O  11,P  10,O   9,C   8)     52.7334         0.013215   
    109. D(H  23,O  12,P  10,O  13)     47.9304         0.013898   
    110. D(H  23,O  12,P  10,O  11)    169.3697         0.013898   
    111. D(H  23,O  12,P  10,O   9)    -60.6030         0.013898   
    112. D(H  24,O  13,P  10,O  12)    102.1859         0.013611   
    113. D(H  24,O  13,P  10,O  11)    -22.1444         0.013611   
    114. D(H  24,O  13,P  10,O   9)   -148.8400         0.013611   
    -----------------------------------------------------------------

Number of atoms                         .... 25
Number of degrees of freedom            .... 114

         *************************************************************
         *                GEOMETRY OPTIMIZATION CYCLE   1            *
         *************************************************************
---------------------------------
CARTESIAN COORDINATES (ANGSTROEM)
---------------------------------
  O     2.321400    0.882100   -0.467200
  C     1.947600   -0.077700    0.216800
  C     2.645700   -0.439700    1.520100
  O     3.491700    0.608200    1.970500
  C     0.820800   -1.004600   -0.227100
  O     1.421900   -2.178900   -0.780200
  C    -0.089800   -0.349900   -1.282100
  O     0.663900   -0.097200   -2.480100
  C    -0.789500    0.927500   -0.803600
  O    -1.397100    0.744300    0.463800
  P    -2.927900    0.283900    0.481800
  O    -3.260300   -0.924400   -0.318900
  O    -3.760700    1.598500    0.148600
  O    -3.269800    0.089800    2.027000
  H     1.897900   -0.625900    2.295100
  H     3.249300   -1.337800    1.364600
  H     3.872300    1.020000    1.170100
  H     0.236400   -1.298600    0.650600
  H     1.579700   -1.980600   -1.727100
  H    -0.849000   -1.088900   -1.562100
  H     1.352200    0.564300   -2.251400
  H    -1.529200    1.250400   -1.546300
  H    -0.080800    1.757700   -0.720400
  H    -3.608200    2.291700    0.815900
  H    -3.938400   -0.614200    2.132000

----------------------------
CARTESIAN COORDINATES (A.U.)
----------------------------
  NO LB    ZA    FRAG    MASS        X           Y           Z
   0 O   8.0000    0    15.999    4.386810    1.666927   -0.882880
   1 C   6.0000    0    12.011    3.680431   -0.146832    0.409693
   2 C   6.0000    0    12.011    4.999648   -0.830913    2.872573
   3 O   8.0000    0    15.999    6.598357    1.149331    3.723705
   4 C   6.0000    0    12.011    1.551087   -1.898419   -0.429157
   5 O   8.0000    0    15.999    2.687002   -4.117524   -1.474364
   6 C   6.0000    0    12.011   -0.169697   -0.661215   -2.422818
   7 O   8.0000    0    15.999    1.254589   -0.183681   -4.686710
   8 C   6.0000    0    12.011   -1.491939    1.752721   -1.518584
   9 O   8.0000    0    15.999   -2.640136    1.406523    0.876455
  10 P  15.0000    0    30.974   -5.532929    0.536493    0.910470
  11 O   8.0000    0    15.999   -6.161074   -1.746863   -0.602634
  12 O   8.0000    0    15.999   -7.106693    3.020727    0.280813
  13 O   8.0000    0    15.999   -6.179027    0.169697    3.830475
  14 H   1.0000    0     1.008    3.586511   -1.182780    4.337110
  15 H   1.0000    0     1.008    6.140287   -2.528076    2.578720
  16 H   1.0000    0     1.008    7.317587    1.927521    2.211169
  17 H   1.0000    0     1.008    0.446731   -2.453998    1.229456
  18 H   1.0000    0     1.008    2.985200   -3.742792   -3.263746
  19 H   1.0000    0     1.008   -1.604377   -2.057723   -2.951941
  20 H   1.0000    0     1.008    2.555288    1.066372   -4.254529
  21 H   1.0000    0     1.008   -2.889769    2.362914   -2.922084
  22 H   1.0000    0     1.008   -0.152690    3.321572   -1.361359
  23 H   1.0000    0     1.008   -6.818510    4.330685    1.541828
  24 H   1.0000    0     1.008   -7.442497   -1.160670    4.028896

      -----------------------------------------------------------      
     |                   =====================                   |     
     |                           x T B                           |     
     |                   =====================                   |     
     |                         S. Grimme                         |     
     |          Mulliken Center for Theoretical Chemistry        |     
     |                    University of Bonn                     |     
      -----------------------------------------------------------      

   * xtb version 6.5.1 (579679a) compiled by 'ehlert@majestix' on 2022-07-11

   xtb is free software: you can redistribute it and/or modify it under
   the terms of the GNU Lesser General Public License as published by
   the Free Software Foundation, either version 3 of the License, or
   (at your option) any later version.
   
   xtb is distributed in the hope that it will be useful,
   but WITHOUT ANY WARRANTY; without even the implied warranty of
   MERCHANTABILITY or FITNESS FOR A PARTICULAR PURPOSE.  See the
   GNU Lesser General Public License for more details.
   
   Cite this work as:
   * C. Bannwarth, E. Caldeweyher, S. Ehlert, A. Hansen, P. Pracht,
     J. Seibert, S. Spicher, S. Grimme, WIREs Comput. Mol. Sci., 2020, 11,
     e01493. DOI: 10.1002/wcms.1493
   
   for GFN2-xTB:
   * C. Bannwarth, S. Ehlert and S. Grimme., J. Chem. Theory Comput., 2019,
     15, 1652-1671. DOI: 10.1021/acs.jctc.8b01176
   for GFN1-xTB:
   * S. Grimme, C. Bannwarth, P. Shushkov, J. Chem. Theory Comput., 2017,
     13, 1989-2009. DOI: 10.1021/acs.jctc.7b00118
   for GFN0-xTB:
   * P. Pracht, E. Caldeweyher, S. Ehlert, S. Grimme, ChemRxiv, 2019, preprint.
     DOI: 10.26434/chemrxiv.8326202.v1
   for GFN-FF:
   * S. Spicher and S. Grimme, Angew. Chem. Int. Ed., 2020, 59, 15665-15673.
     DOI: 10.1002/anie.202004239
   
   for ALPB and GBSA implicit solvation:
   * S. Ehlert, M. Stahn, S. Spicher, S. Grimme, J. Chem. Theory Comput.,
     2021, 17, 4250-4261. DOI: 10.1021/acs.jctc.1c00471
   
   for DFT-D4:
   * E. Caldeweyher, C. Bannwarth and S. Grimme, J. Chem. Phys., 2017,
     147, 034112. DOI: 10.1063/1.4993215
   * E. Caldeweyher, S. Ehlert, A. Hansen, H. Neugebauer, S. Spicher,
     C. Bannwarth and S. Grimme, J. Chem. Phys., 2019, 150, 154122.
     DOI: 10.1063/1.5090222
   * E. Caldeweyher, J.-M. Mewes, S. Ehlert and S. Grimme, Phys. Chem. Chem. Phys.
     2020, 22, 8499-8512. DOI: 10.1039/D0CP00502A
   
   for sTDA-xTB:
   * S. Grimme and C. Bannwarth, J. Chem. Phys., 2016, 145, 054103.
     DOI: 10.1063/1.4959605
   
   in the mass-spec context:
   * V. Asgeirsson, C. Bauer and S. Grimme, Chem. Sci., 2017, 8, 4879.
     DOI: 10.1039/c7sc00601b
   * J. Koopman and S. Grimme, ACS Omega 2019, 4, 12, 15120-15133.
     DOI: 10.1021/acsomega.9b02011
   
   for metadynamics refer to:
   * S. Grimme, J. Chem. Theory Comput., 2019, 155, 2847-2862
     DOI: 10.1021/acs.jctc.9b00143
   
   for SPH calculations refer to:
   * S. Spicher and S. Grimme, J. Chem. Theory Comput., 2021, 17, 1701-1714
     DOI: 10.1021/acs.jctc.0c01306
   
   with help from (in alphabetical order)
   P. Atkinson, C. Bannwarth, F. Bohle, G. Brandenburg, E. Caldeweyher
   M. Checinski, S. Dohm, S. Ehlert, S. Ehrlich, I. Gerasimov, C. Hölzer
   A. Katbashev, J. Koopman, C. Lavigne, S. Lehtola, F. März, M. Müller,
   F. Musil, H. Neugebauer, J. Pisarek, C. Plett, P. Pracht, F. Pultar,
   J. Seibert, P. Shushkov, S. Spicher, M. Stahn, M. Steiner, T. Strunk,
   J. Stückrath, T. Rose, and J. Unsleber
   
 * started run on 2023/12/04 at 13:58:11.352     

           -------------------------------------------------
          |                Calculation Setup                |
           -------------------------------------------------

          program call               : otool_xtb /tmp/C00199_XTB.xyz --grad -c 0 -u 0 -P 1 --namespace /tmp/C00199 --input /tmp/C00199_XTB.input.tmp --acc 1.000000
          calculation namespace      : /tmp/C00199
          coordinate file            : /tmp/C00199_XTB.xyz
          omp threads                :                     1

   ID    Z sym.   atoms
    1    8 O      1, 4, 6, 8, 10, 12-14
    2    6 C      2, 3, 5, 7, 9
    3   15 P      11
    4    1 H      15-25

           -------------------------------------------------
          |                 G F N 2 - x T B                 |
           -------------------------------------------------

        Reference                      10.1021/acs.jctc.8b01176
      * Hamiltonian:
        H0-scaling (s, p, d)           1.850000    2.230000    2.230000
        zeta-weighting                 0.500000
      * Dispersion:
        s8                             2.700000
        a1                             0.520000
        a2                             5.000000
        s9                             5.000000
      * Repulsion:
        kExp                           1.500000    1.000000
        rExp                           1.000000
      * Coulomb:
        alpha                          2.000000
        third order                    shell-resolved
        anisotropic                    true
        a3                             3.000000
        a5                             4.000000
        cn-shift                       1.200000
        cn-exp                         4.000000
        max-rad                        5.000000


          ...................................................
          :                      SETUP                      :
          :.................................................:
          :  # basis functions                  73          :
          :  # atomic orbitals                  72          :
          :  # shells                           40          :
          :  # electrons                        84          :
          :  max. iterations                   250          :
          :  Hamiltonian                  GFN2-xTB          :
          :  restarted?                      false          :
          :  GBSA solvation                  false          :
          :  PC potential                    false          :
          :  electronic temp.          300.0000000     K    :
          :  accuracy                    1.0000000          :
          :  -> integral cutoff          0.2500000E+02      :
          :  -> integral neglect         0.1000000E-07      :
          :  -> SCF convergence          0.1000000E-05 Eh   :
          :  -> wf. convergence          0.1000000E-03 e    :
          :  Broyden damping             0.4000000          :
          ...................................................

 iter      E             dE          RMSdq      gap      omega  full diag
   1    -51.7177059 -0.517177E+02  0.657E+00    3.74       0.0  T
   2    -51.7896934 -0.719875E-01  0.369E+00    2.90       1.0  T
   3    -51.7905820 -0.888600E-03  0.139E+00    3.31       1.0  T
   4    -51.8087989 -0.182169E-01  0.553E-01    2.90       1.0  T
   5    -51.8098336 -0.103467E-02  0.228E-01    3.04       1.0  T
   6    -51.8100308 -0.197259E-03  0.779E-02    3.00       1.0  T
   7    -51.8100418 -0.109705E-04  0.305E-02    3.00       1.0  T
   8    -51.8100445 -0.275026E-05  0.110E-02    3.00       1.8  T
   9    -51.8100448 -0.230552E-06  0.393E-03    3.00       5.1  T
  10    -51.8100449 -0.860003E-07  0.132E-03    3.00      15.1  T
  11    -51.8100449 -0.531659E-08  0.477E-04    3.00      41.9  T
  12    -51.8100449 -0.500222E-09  0.202E-04    3.00      99.2  T

   *** convergence criteria satisfied after 12 iterations ***

         #    Occupation            Energy/Eh            Energy/eV
      -------------------------------------------------------------
         1        2.0000           -0.7581623             -20.6306
       ...           ...                  ...                  ...
        36        2.0000           -0.4778517             -13.0030
        37        2.0000           -0.4668632             -12.7040
        38        2.0000           -0.4457576             -12.1297
        39        2.0000           -0.4449028             -12.1064
        40        2.0000           -0.4396529             -11.9636
        41        2.0000           -0.4372947             -11.8994
        42        2.0000           -0.4127434             -11.2313 (HOMO)
        43                         -0.3024334              -8.2296 (LUMO)
        44                         -0.0979594              -2.6656
        45                         -0.0742303              -2.0199
        46                         -0.0221241              -0.6020
        47                         -0.0140343              -0.3819
       ...                                ...                  ...
        72                          1.2611686              34.3181
      -------------------------------------------------------------
                  HL-Gap            0.1103100 Eh            3.0017 eV
             Fermi-level           -0.3575884 Eh           -9.7305 eV

 SCC (total)                   0 d,  0 h,  0 min,  0.029 sec
 SCC setup                      ...        0 min,  0.000 sec (  0.585%)
 Dispersion                     ...        0 min,  0.000 sec (  0.595%)
 classical contributions        ...        0 min,  0.000 sec (  0.130%)
 integral evaluation            ...        0 min,  0.004 sec ( 15.370%)
 iterations                     ...        0 min,  0.012 sec ( 40.536%)
 molecular gradient             ...        0 min,  0.012 sec ( 42.264%)
 printout                       ...        0 min,  0.000 sec (  0.466%)

         :::::::::::::::::::::::::::::::::::::::::::::::::::::
         ::                     SUMMARY                     ::
         :::::::::::::::::::::::::::::::::::::::::::::::::::::
         :: total energy             -51.478891196122 Eh    ::
         :: gradient norm              0.090810651626 Eh/a0 ::
         :: HOMO-LUMO gap              3.001687864186 eV    ::
         ::.................................................::
         :: SCC energy               -51.810044861921 Eh    ::
         :: -> isotropic ES            0.201601898147 Eh    ::
         :: -> anisotropic ES         -0.006088198633 Eh    ::
         :: -> anisotropic XC         -0.002940337661 Eh    ::
         :: -> dispersion             -0.021231639276 Eh    ::
         :: repulsion energy           0.330948006861 Eh    ::
         :: add. restraining           0.000000000000 Eh    ::
         :: total charge               0.000000000000 e     ::
         :::::::::::::::::::::::::::::::::::::::::::::::::::::


Property printout bound to 'properties.out'

           -------------------------------------------------
          | TOTAL ENERGY              -51.478891196122 Eh   |
          | GRADIENT NORM               0.090810651626 Eh/α |
          | HOMO-LUMO GAP               3.001687864186 eV   |
           -------------------------------------------------

------------------------------------------------------------------------
 * finished run on 2023/12/04 at 13:58:11.392     
------------------------------------------------------------------------
 total:
 * wall-time:     0 d,  0 h,  0 min,  0.040 sec
 *  cpu-time:     0 d,  0 h,  0 min,  0.040 sec
 * ratio c/w:     1.002 speedup
 SCF:
 * wall-time:     0 d,  0 h,  0 min,  0.029 sec
 *  cpu-time:     0 d,  0 h,  0 min,  0.028 sec
 * ratio c/w:     0.953 speedup


-------------------------   --------------------
FINAL SINGLE POINT ENERGY       -51.478891196120
-------------------------   --------------------

------------------------------------------------------------------------------
                         ORCA GEOMETRY RELAXATION STEP
------------------------------------------------------------------------------

Reading the OPT-File                    .... done
Getting information on internals        .... done
Copying old internal coords+grads       .... done
Making the new internal coordinates     .... (new redundants).... done
Validating the new internal coordinates .... (new redundants).... done
Calculating the B-matrix                .... done
Calculating the G,G- and P matrices     .... done
Transforming gradient to internals      .... done
Projecting the internal gradient        .... done
Number of atoms                         ....  25
Number of internal coordinates          .... 114
Current Energy                          ....   -51.478891196 Eh
Current gradient norm                   ....     0.090810652 Eh/bohr
Maximum allowed component of the step   ....  0.300
Current trust radius                    ....  0.300
Evaluating the initial hessian          ....  (Almloef) done
Projecting the Hessian                  .... done
Forming the augmented Hessian           .... done
Diagonalizing the augmented Hessian     .... done
Last element of RFO vector              ....  0.970270572
Lowest eigenvalues of augmented Hessian:
 -0.009860686  0.010434132  0.010795818  0.010910496  0.011014837
Length of the computed step             ....  0.249438421
The final length of the internal step   ....  0.249438421
Converting the step to cartesian space:
 Initial RMS(Int)=    0.0233620486
Transforming coordinates:
 Iter   0:  RMS(Cart)=    0.0684472062 RMS(Int)=    0.0232654507
 Iter   1:  RMS(Cart)=    0.0018387448 RMS(Int)=    0.0011764418
 Iter   2:  RMS(Cart)=    0.0001519119 RMS(Int)=    0.0001092022
 Iter   3:  RMS(Cart)=    0.0000143582 RMS(Int)=    0.0000118711
 Iter   4:  RMS(Cart)=    0.0000015087 RMS(Int)=    0.0000012890
 Iter   5:  RMS(Cart)=    0.0000001576 RMS(Int)=    0.0000001364
 Iter   6:  RMS(Cart)=    0.0000000170 RMS(Int)=    0.0000000149
done
Storing new coordinates                 .... done

                                .--------------------.
          ----------------------|Geometry convergence|-------------------------
          Item                value                   Tolerance       Converged
          ---------------------------------------------------------------------
          RMS gradient        0.0067780458            0.0001000000      NO
          MAX gradient        0.0357144471            0.0003000000      NO
          RMS step            0.0233620486            0.0020000000      NO
          MAX step            0.0911828294            0.0040000000      NO
          ........................................................
          Max(Bonds)      0.0217      Max(Angles)    2.30
          Max(Dihed)        5.22      Max(Improp)    0.00
          ---------------------------------------------------------------------

The optimization has not yet converged - more geometry cycles are needed


    ---------------------------------------------------------------------------
                         Redundant Internal Coordinates
                            (Angstroem and degrees)

        Definition                    Value    dE/dq     Step     New-Value
    ----------------------------------------------------------------------------
     1. B(C   1,O   0)                1.2364  0.035714 -0.0190    1.2174   
     2. B(C   2,C   1)                1.5222  0.011163 -0.0150    1.5072   
     3. B(O   3,C   2)                1.4201  0.011569 -0.0120    1.4081   
     4. B(C   4,C   1)                1.5251 -0.000463  0.0006    1.5257   
     5. B(O   5,C   4)                1.4305  0.014184 -0.0153    1.4152   
     6. B(C   6,C   4)                1.5398  0.002448 -0.0035    1.5363   
     7. B(O   7,C   6)                1.4377  0.019705 -0.0217    1.4160   
     8. B(C   8,C   6)                1.5331  0.004026 -0.0056    1.5274   
     9. B(O   9,C   8)                1.4174  0.003265 -0.0033    1.4141   
    10. B(P  10,O   9)                1.5986  0.001342 -0.0008    1.5978   
    11. B(O  11,P  10)                1.4871  0.033450 -0.0133    1.4738   
    12. B(O  12,P  10)                1.5915 -0.004746  0.0028    1.5942   
    13. B(O  13,P  10)                1.5944 -0.000100  0.0001    1.5945   
    14. B(H  14,C   2)                1.0929  0.001299 -0.0019    1.0911   
    15. B(H  15,C   2)                1.0932 -0.003765  0.0054    1.0987   
    16. B(H  16,O   3)                0.9773  0.007634 -0.0081    0.9692   
    17. B(H  17,C   4)                1.0947  0.001042 -0.0015    1.0932   
    18. B(H  18,O   5)                0.9802  0.007784 -0.0084    0.9719   
    19. B(H  19,C   6)                1.0959  0.000216 -0.0003    1.0955   
    20. B(H  20,O   7)                0.9817  0.008554 -0.0092    0.9724   
    21. B(H  21,C   8)                1.0968  0.000208 -0.0003    1.0965   
    22. B(H  22,C   8)                1.0947 -0.001390  0.0020    1.0967   
    23. B(H  23,O  12)                0.9742  0.013361 -0.0140    0.9602   
    24. B(H  24,O  13)                0.9766  0.017379 -0.0184    0.9581   
    25. A(C   2,C   1,C   4)          116.33  0.000340   -0.09    116.24   
    26. A(O   0,C   1,C   2)          121.31  0.002744   -0.39    120.92   
    27. A(O   0,C   1,C   4)          122.29 -0.003046    0.37    122.65   
    28. A(O   3,C   2,H  14)          107.96  0.001050   -0.09    107.87   
    29. A(C   1,C   2,H  15)          109.08  0.004233   -0.85    108.22   
    30. A(C   1,C   2,H  14)          109.50 -0.002096    0.33    109.83   
    31. A(C   1,C   2,O   3)          111.67  0.000118    0.11    111.78   
    32. A(O   3,C   2,H  15)          108.81 -0.004373    0.99    109.80   
    33. A(H  14,C   2,H  15)          109.80  0.001030   -0.48    109.32   
    34. A(C   2,O   3,H  16)          106.45 -0.002834    0.45    106.90   
    35. A(C   1,C   4,C   6)          112.21  0.000876   -0.08    112.12   
    36. A(C   1,C   4,H  17)          108.92 -0.001553    0.54    109.47   
    37. A(C   1,C   4,O   5)          107.52  0.000320   -0.14    107.38   
    38. A(C   6,C   4,H  17)          110.36  0.000067    0.06    110.41   
    39. A(O   5,C   4,C   6)          109.43 -0.000748   -0.01    109.42   
    40. A(O   5,C   4,H  17)          108.29  0.001062   -0.39    107.91   
    41. A(C   4,O   5,H  18)          105.97 -0.001076    0.17    106.14   
    42. A(O   7,C   6,H  19)          105.59  0.000802    0.26    105.86   
    43. A(C   4,C   6,H  19)          107.34 -0.002440    0.65    107.99   
    44. A(C   4,C   6,O   7)          109.61 -0.000634   -0.14    109.47   
    45. A(O   7,C   6,C   8)          110.66 -0.002409    0.22    110.88   
    46. A(C   4,C   6,C   8)          114.23  0.005378   -1.21    113.02   
    47. A(C   8,C   6,H  19)          108.99 -0.001040    0.34    109.34   
    48. A(C   6,O   7,H  20)          106.97  0.000807   -0.13    106.84   
    49. A(C   6,C   8,O   9)          111.53  0.000806   -0.51    111.02   
    50. A(H  21,C   8,H  22)          105.35 -0.004309    1.72    107.08   
    51. A(O   9,C   8,H  22)          107.91  0.001074   -0.45    107.46   
    52. A(C   6,C   8,H  22)          111.11  0.000256   -0.09    111.02   
    53. A(O   9,C   8,H  21)          110.76 -0.001682    0.14    110.89   
    54. A(C   6,C   8,H  21)          109.98  0.003510   -0.68    109.30   
    55. A(C   8,O   9,P  10)          117.24  0.008026   -0.96    116.28   
    56. A(O  11,P  10,O  12)          116.20  0.007513   -0.64    115.56   
    57. A(O   9,P  10,O  12)          105.12 -0.000153   -0.28    104.84   
    58. A(O   9,P  10,O  11)          116.23 -0.002098   -0.24    115.99   
    59. A(O  12,P  10,O  13)          101.03 -0.014770    2.14    103.17   
    60. A(O  11,P  10,O  13)          112.02 -0.008679    1.38    113.40   
    61. A(O   9,P  10,O  13)          104.55  0.018046   -2.30    102.26   
    62. A(P  10,O  12,H  23)          111.25 -0.000222    0.03    111.28   
    63. A(P  10,O  13,H  24)          109.80  0.005059   -0.68    109.12   
    64. D(O   3,C   2,C   1,O   0)     14.32 -0.000837    0.25     14.57   
    65. D(O   3,C   2,C   1,C   4)   -168.84 -0.000164   -1.86   -170.70   
    66. D(H  14,C   2,C   1,O   0)    133.85 -0.000830    0.42    134.27   
    67. D(H  15,C   2,C   1,O   0)   -105.98  0.001744   -0.49   -106.47   
    68. D(H  15,C   2,C   1,C   4)     70.86  0.002416   -2.60     68.26   
    69. D(H  14,C   2,C   1,C   4)    -49.31 -0.000157   -1.69    -51.00   
    70. D(H  16,O   3,C   2,C   1)    -35.30 -0.002487    2.29    -33.01   
    71. D(H  16,O   3,C   2,H  15)     85.16 -0.000028    1.95     87.10   
    72. D(H  16,O   3,C   2,H  14)   -155.73 -0.000650    1.87   -153.86   
    73. D(H  17,C   4,C   1,O   0)   -143.18  0.000776   -1.27   -144.46   
    74. D(C   6,C   4,C   1,O   0)    -20.69  0.000354   -0.88    -21.57   
    75. D(C   6,C   4,C   1,C   2)    162.50 -0.000526    1.28    163.78   
    76. D(O   5,C   4,C   1,C   2)    -77.13 -0.000711    1.13    -76.00   
    77. D(H  17,C   4,C   1,C   2)     40.01 -0.000104    0.88     40.89   
    78. D(O   5,C   4,C   1,O   0)     99.68  0.000169   -1.03     98.65   
    79. D(H  18,O   5,C   4,H  17)    155.17  0.000878   -1.03    154.15   
    80. D(H  18,O   5,C   4,C   6)     34.83  0.000597   -0.86     33.98   
    81. D(H  18,O   5,C   4,C   1)    -87.28 -0.000219   -0.67    -87.95   
    82. D(H  19,C   6,C   4,O   5)     59.24 -0.000414    0.68     59.92   
    83. D(H  19,C   6,C   4,C   1)    178.50  0.000043    0.45    178.95   
    84. D(C   8,C   6,C   4,H  17)     61.13 -0.000941    1.26     62.39   
    85. D(C   8,C   6,C   4,O   5)   -179.81 -0.000059    0.82   -178.99   
    86. D(C   8,C   6,C   4,C   1)    -60.55  0.000399    0.58    -59.96   
    87. D(O   7,C   6,C   4,H  17)   -174.05 -0.000624    0.54   -173.50   
    88. D(O   7,C   6,C   4,O   5)    -54.98  0.000258    0.10    -54.88   
    89. D(H  19,C   6,C   4,H  17)    -59.83 -0.001296    1.13    -58.70   
    90. D(O   7,C   6,C   4,C   1)     64.28  0.000715   -0.14     64.14   
    91. D(H  20,O   7,C   6,H  19)   -179.99  0.000091    0.25   -179.74   
    92. D(H  20,O   7,C   6,C   8)     62.21  0.002103   -0.42     61.79   
    93. D(H  20,O   7,C   6,C   4)    -64.65 -0.002629    1.08    -63.57   
    94. D(O   9,C   8,C   6,C   4)    -48.26  0.000210   -0.45    -48.71   
    95. D(H  22,C   8,C   6,O   7)    -52.08  0.000974   -0.50    -52.58   
    96. D(H  22,C   8,C   6,C   4)     72.19  0.002299   -1.43     70.76   
    97. D(H  21,C   8,C   6,H  19)    -51.52 -0.001022    0.50    -51.02   
    98. D(H  21,C   8,C   6,O   7)     64.18 -0.002017    1.15     65.32   
    99. D(H  21,C   8,C   6,C   4)   -171.56 -0.000693    0.22   -171.34   
   100. D(O   9,C   8,C   6,H  19)     71.77 -0.000120   -0.16     71.61   
   101. D(H  22,C   8,C   6,H  19)   -167.78  0.001969   -1.14   -168.92   
   102. D(O   9,C   8,C   6,O   7)   -172.53 -0.001115    0.48   -172.05   
   103. D(P  10,O   9,C   8,H  22)    145.44 -0.003548    3.20    148.63   
   104. D(P  10,O   9,C   8,H  21)     30.59  0.001883    1.32     31.91   
   105. D(P  10,O   9,C   8,C   6)    -92.26 -0.001999    2.46    -89.80   
   106. D(O  13,P  10,O   9,C   8)    176.77  0.004543   -2.59    174.19   
   107. D(O  12,P  10,O   9,C   8)    -77.28 -0.005236   -1.16    -78.43   
   108. D(O  11,P  10,O   9,C   8)     52.73  0.003187   -2.45     50.29   
   109. D(H  23,O  12,P  10,O  13)     47.93  0.010151   -0.93     47.00   
   110. D(H  23,O  12,P  10,O  11)    169.37 -0.006857    1.93    171.30   
   111. D(H  23,O  12,P  10,O   9)    -60.60 -0.004071    0.87    -59.73   
   112. D(H  24,O  13,P  10,O  12)    102.19 -0.003530    5.22    107.41   
   113. D(H  24,O  13,P  10,O  11)    -22.14  0.001143    3.94    -18.20   
   114. D(H  24,O  13,P  10,O   9)   -148.84 -0.003409    4.98   -143.86   
    ----------------------------------------------------------------------------

         *************************************************************
         *                GEOMETRY OPTIMIZATION CYCLE   2            *
         *************************************************************
---------------------------------
CARTESIAN COORDINATES (ANGSTROEM)
---------------------------------
  O     2.311191    0.864067   -0.458357
  C     1.916070   -0.060152    0.228534
  C     2.614184   -0.422942    1.514076
  O     3.489799    0.594892    1.938448
  C     0.785102   -0.985956   -0.209170
  O     1.378199   -2.157437   -0.737083
  C    -0.110205   -0.340522   -1.277780
  O     0.646415   -0.113351   -2.452930
  C    -0.774844    0.949276   -0.800525
  O    -1.379424    0.769941    0.465130
  P    -2.901128    0.282644    0.459722
  O    -3.199954   -0.892438   -0.378112
  O    -3.748746    1.592772    0.133102
  O    -3.185701    0.043371    2.010260
  H     1.877633   -0.581579    2.303207
  H     3.176163   -1.352498    1.349325
  H     3.845245    1.012087    1.139144
  H     0.191507   -1.273338    0.662644
  H     1.532667   -1.980592   -1.680155
  H    -0.883037   -1.065858   -1.554969
  H     1.340875    0.526783   -2.221530
  H    -1.512894    1.273245   -1.543951
  H    -0.040016    1.757541   -0.702663
  H    -3.605363    2.274339    0.794018
  H    -3.763638   -0.714294    2.110017

----------------------------
CARTESIAN COORDINATES (A.U.)
----------------------------
  NO LB    ZA    FRAG    MASS        X           Y           Z
   0 O   8.0000    0    15.999    4.367518    1.632850   -0.866169
   1 C   6.0000    0    12.011    3.620847   -0.113672    0.431866
   2 C   6.0000    0    12.011    4.940092   -0.799245    2.861189
   3 O   8.0000    0    15.999    6.594764    1.124182    3.663135
   4 C   6.0000    0    12.011    1.483628   -1.863188   -0.395274
   5 O   8.0000    0    15.999    2.604419   -4.076966   -1.392885
   6 C   6.0000    0    12.011   -0.208257   -0.643494   -2.414655
   7 O   8.0000    0    15.999    1.221546   -0.214202   -4.635366
   8 C   6.0000    0    12.011   -1.464244    1.793873   -1.512772
   9 O   8.0000    0    15.999   -2.606733    1.454978    0.878969
  10 P  15.0000    0    30.974   -5.482337    0.534120    0.868749
  11 O   8.0000    0    15.999   -6.047036   -1.686463   -0.714528
  12 O   8.0000    0    15.999   -7.084104    3.009902    0.251526
  13 O   8.0000    0    15.999   -6.020103    0.081960    3.798841
  14 H   1.0000    0     1.008    3.548213   -1.099025    4.352430
  15 H   1.0000    0     1.008    6.002077   -2.555851    2.549854
  16 H   1.0000    0     1.008    7.266461    1.912567    2.152669
  17 H   1.0000    0     1.008    0.361897   -2.406260    1.252216
  18 H   1.0000    0     1.008    2.896321   -3.742776   -3.175033
  19 H   1.0000    0     1.008   -1.668698   -2.014179   -2.938466
  20 H   1.0000    0     1.008    2.533887    0.995475   -4.198083
  21 H   1.0000    0     1.008   -2.858954    2.406085   -2.917645
  22 H   1.0000    0     1.008   -0.075620    3.321270   -1.327841
  23 H   1.0000    0     1.008   -6.813149    4.297877    1.500476
  24 H   1.0000    0     1.008   -7.112246   -1.349820    3.987354

      -----------------------------------------------------------      
     |                   =====================                   |     
     |                           x T B                           |     
     |                   =====================                   |     
     |                         S. Grimme                         |     
     |          Mulliken Center for Theoretical Chemistry        |     
     |                    University of Bonn                     |     
      -----------------------------------------------------------      

   * xtb version 6.5.1 (579679a) compiled by 'ehlert@majestix' on 2022-07-11

   xtb is free software: you can redistribute it and/or modify it under
   the terms of the GNU Lesser General Public License as published by
   the Free Software Foundation, either version 3 of the License, or
   (at your option) any later version.
   
   xtb is distributed in the hope that it will be useful,
   but WITHOUT ANY WARRANTY; without even the implied warranty of
   MERCHANTABILITY or FITNESS FOR A PARTICULAR PURPOSE.  See the
   GNU Lesser General Public License for more details.
   
   Cite this work as:
   * C. Bannwarth, E. Caldeweyher, S. Ehlert, A. Hansen, P. Pracht,
     J. Seibert, S. Spicher, S. Grimme, WIREs Comput. Mol. Sci., 2020, 11,
     e01493. DOI: 10.1002/wcms.1493
   
   for GFN2-xTB:
   * C. Bannwarth, S. Ehlert and S. Grimme., J. Chem. Theory Comput., 2019,
     15, 1652-1671. DOI: 10.1021/acs.jctc.8b01176
   for GFN1-xTB:
   * S. Grimme, C. Bannwarth, P. Shushkov, J. Chem. Theory Comput., 2017,
     13, 1989-2009. DOI: 10.1021/acs.jctc.7b00118
   for GFN0-xTB:
   * P. Pracht, E. Caldeweyher, S. Ehlert, S. Grimme, ChemRxiv, 2019, preprint.
     DOI: 10.26434/chemrxiv.8326202.v1
   for GFN-FF:
   * S. Spicher and S. Grimme, Angew. Chem. Int. Ed., 2020, 59, 15665-15673.
     DOI: 10.1002/anie.202004239
   
   for ALPB and GBSA implicit solvation:
   * S. Ehlert, M. Stahn, S. Spicher, S. Grimme, J. Chem. Theory Comput.,
     2021, 17, 4250-4261. DOI: 10.1021/acs.jctc.1c00471
   
   for DFT-D4:
   * E. Caldeweyher, C. Bannwarth and S. Grimme, J. Chem. Phys., 2017,
     147, 034112. DOI: 10.1063/1.4993215
   * E. Caldeweyher, S. Ehlert, A. Hansen, H. Neugebauer, S. Spicher,
     C. Bannwarth and S. Grimme, J. Chem. Phys., 2019, 150, 154122.
     DOI: 10.1063/1.5090222
   * E. Caldeweyher, J.-M. Mewes, S. Ehlert and S. Grimme, Phys. Chem. Chem. Phys.
     2020, 22, 8499-8512. DOI: 10.1039/D0CP00502A
   
   for sTDA-xTB:
   * S. Grimme and C. Bannwarth, J. Chem. Phys., 2016, 145, 054103.
     DOI: 10.1063/1.4959605
   
   in the mass-spec context:
   * V. Asgeirsson, C. Bauer and S. Grimme, Chem. Sci., 2017, 8, 4879.
     DOI: 10.1039/c7sc00601b
   * J. Koopman and S. Grimme, ACS Omega 2019, 4, 12, 15120-15133.
     DOI: 10.1021/acsomega.9b02011
   
   for metadynamics refer to:
   * S. Grimme, J. Chem. Theory Comput., 2019, 155, 2847-2862
     DOI: 10.1021/acs.jctc.9b00143
   
   for SPH calculations refer to:
   * S. Spicher and S. Grimme, J. Chem. Theory Comput., 2021, 17, 1701-1714
     DOI: 10.1021/acs.jctc.0c01306
   
   with help from (in alphabetical order)
   P. Atkinson, C. Bannwarth, F. Bohle, G. Brandenburg, E. Caldeweyher
   M. Checinski, S. Dohm, S. Ehlert, S. Ehrlich, I. Gerasimov, C. Hölzer
   A. Katbashev, J. Koopman, C. Lavigne, S. Lehtola, F. März, M. Müller,
   F. Musil, H. Neugebauer, J. Pisarek, C. Plett, P. Pracht, F. Pultar,
   J. Seibert, P. Shushkov, S. Spicher, M. Stahn, M. Steiner, T. Strunk,
   J. Stückrath, T. Rose, and J. Unsleber
   
 * started run on 2023/12/04 at 13:58:11.467     

           -------------------------------------------------
          |                Calculation Setup                |
           -------------------------------------------------

          program call               : otool_xtb /tmp/C00199_XTB.xyz --grad -c 0 -u 0 -P 1 --namespace /tmp/C00199 --input /tmp/C00199_XTB.input.tmp --acc 1.000000
          calculation namespace      : /tmp/C00199
          coordinate file            : /tmp/C00199_XTB.xyz
          omp threads                :                     1

   ID    Z sym.   atoms
    1    8 O      1, 4, 6, 8, 10, 12-14
    2    6 C      2, 3, 5, 7, 9
    3   15 P      11
    4    1 H      15-25

           -------------------------------------------------
          |                 G F N 2 - x T B                 |
           -------------------------------------------------

        Reference                      10.1021/acs.jctc.8b01176
      * Hamiltonian:
        H0-scaling (s, p, d)           1.850000    2.230000    2.230000
        zeta-weighting                 0.500000
      * Dispersion:
        s8                             2.700000
        a1                             0.520000
        a2                             5.000000
        s9                             5.000000
      * Repulsion:
        kExp                           1.500000    1.000000
        rExp                           1.000000
      * Coulomb:
        alpha                          2.000000
        third order                    shell-resolved
        anisotropic                    true
        a3                             3.000000
        a5                             4.000000
        cn-shift                       1.200000
        cn-exp                         4.000000
        max-rad                        5.000000

q/qsh data taken from xtbrestart
CAMM data taken from xtbrestart

          ...................................................
          :                      SETUP                      :
          :.................................................:
          :  # basis functions                  73          :
          :  # atomic orbitals                  72          :
          :  # shells                           40          :
          :  # electrons                        84          :
          :  max. iterations                   250          :
          :  Hamiltonian                  GFN2-xTB          :
          :  restarted?                       true          :
          :  GBSA solvation                  false          :
          :  PC potential                    false          :
          :  electronic temp.          300.0000000     K    :
          :  accuracy                    1.0000000          :
          :  -> integral cutoff          0.2500000E+02      :
          :  -> integral neglect         0.1000000E-07      :
          :  -> SCF convergence          0.1000000E-05 Eh   :
          :  -> wf. convergence          0.1000000E-03 e    :
          :  Broyden damping             0.4000000          :
          ...................................................

 iter      E             dE          RMSdq      gap      omega  full diag
   1    -51.8373232 -0.518373E+02  0.398E-01    3.13       0.0  T
   2    -51.8373630 -0.397326E-04  0.234E-01    3.11       1.0  T
   3    -51.8373587  0.424585E-05  0.315E-02    3.12       1.0  T
   4    -51.8373692 -0.104839E-04  0.102E-02    3.11       2.0  T
   5    -51.8373694 -0.240703E-06  0.484E-03    3.12       4.1  T
   6    -51.8373696 -0.151033E-06  0.177E-03    3.11      11.3  T
   7    -51.8373696 -0.128314E-07  0.797E-04    3.11      25.1  T
   8    -51.8373696 -0.167820E-08  0.217E-04    3.11      92.2  T

   *** convergence criteria satisfied after 8 iterations ***

         #    Occupation            Energy/Eh            Energy/eV
      -------------------------------------------------------------
         1        2.0000           -0.7590055             -20.6536
       ...           ...                  ...                  ...
        36        2.0000           -0.4785204             -13.0212
        37        2.0000           -0.4667951             -12.7021
        38        2.0000           -0.4501584             -12.2494
        39        2.0000           -0.4462049             -12.1419
        40        2.0000           -0.4381363             -11.9223
        41        2.0000           -0.4359270             -11.8622
        42        2.0000           -0.4101559             -11.1609 (HOMO)
        43                         -0.2956864              -8.0460 (LUMO)
        44                         -0.0821329              -2.2350
        45                         -0.0630323              -1.7152
        46                         -0.0287264              -0.7817
        47                          0.0015378               0.0418
       ...                                ...                  ...
        72                          1.2602369              34.2928
      -------------------------------------------------------------
                  HL-Gap            0.1144695 Eh            3.1149 eV
             Fermi-level           -0.3529211 Eh           -9.6035 eV

 SCC (total)                   0 d,  0 h,  0 min,  0.025 sec
 SCC setup                      ...        0 min,  0.000 sec (  0.678%)
 Dispersion                     ...        0 min,  0.000 sec (  0.754%)
 classical contributions        ...        0 min,  0.000 sec (  0.155%)
 integral evaluation            ...        0 min,  0.004 sec ( 16.871%)
 iterations                     ...        0 min,  0.008 sec ( 32.104%)
 molecular gradient             ...        0 min,  0.012 sec ( 48.864%)
 printout                       ...        0 min,  0.000 sec (  0.519%)

         :::::::::::::::::::::::::::::::::::::::::::::::::::::
         ::                     SUMMARY                     ::
         :::::::::::::::::::::::::::::::::::::::::::::::::::::
         :: total energy             -51.485827576085 Eh    ::
         :: gradient norm              0.044528603204 Eh/a0 ::
         :: HOMO-LUMO gap              3.114874553868 eV    ::
         ::.................................................::
         :: SCC energy               -51.837369600443 Eh    ::
         :: -> isotropic ES            0.198818832550 Eh    ::
         :: -> anisotropic ES         -0.006255454116 Eh    ::
         :: -> anisotropic XC         -0.003998430764 Eh    ::
         :: -> dispersion             -0.021540961192 Eh    ::
         :: repulsion energy           0.351331532264 Eh    ::
         :: add. restraining           0.000000000000 Eh    ::
         :: total charge              -0.000000000000 e     ::
         :::::::::::::::::::::::::::::::::::::::::::::::::::::


Property printout bound to 'properties.out'

           -------------------------------------------------
          | TOTAL ENERGY              -51.485827576085 Eh   |
          | GRADIENT NORM               0.044528603204 Eh/α |
          | HOMO-LUMO GAP               3.114874553868 eV   |
           -------------------------------------------------

------------------------------------------------------------------------
 * finished run on 2023/12/04 at 13:58:11.503     
------------------------------------------------------------------------
 total:
 * wall-time:     0 d,  0 h,  0 min,  0.036 sec
 *  cpu-time:     0 d,  0 h,  0 min,  0.036 sec
 * ratio c/w:     1.007 speedup
 SCF:
 * wall-time:     0 d,  0 h,  0 min,  0.025 sec
 *  cpu-time:     0 d,  0 h,  0 min,  0.024 sec
 * ratio c/w:     0.947 speedup


-------------------------   --------------------
FINAL SINGLE POINT ENERGY       -51.485827576090
-------------------------   --------------------

------------------------------------------------------------------------------
                         ORCA GEOMETRY RELAXATION STEP
------------------------------------------------------------------------------

Reading the OPT-File                    .... done
Getting information on internals        .... done
Copying old internal coords+grads       .... done
Making the new internal coordinates     .... (new redundants).... done
Validating the new internal coordinates .... (new redundants).... done
Calculating the B-matrix                .... done
Calculating the G,G- and P matrices     .... done
Transforming gradient to internals      .... done
Projecting the internal gradient        .... done
Number of atoms                         ....  25
Number of internal coordinates          .... 114
Current Energy                          ....   -51.485827576 Eh
Current gradient norm                   ....     0.044528603 Eh/bohr
Maximum allowed component of the step   ....  0.300
Current trust radius                    ....  0.300
Updating the Hessian (BFGS)             .... done
Forming the augmented Hessian           .... done
Diagonalizing the augmented Hessian     .... done
Last element of RFO vector              ....  0.953679150
Lowest eigenvalues of augmented Hessian:
 -0.004365907  0.010435595  0.010800859  0.010910485  0.011061168
Length of the computed step             ....  0.315436970
Warning: the length of the step is outside the trust region - taking restricted step instead
The input lambda is                     ....    -0.004366
   iter:   1  x=   -0.005301  g=   10.156553 f(x)=     0.009500
   iter:   2  x=   -0.005384  g=    8.675382 f(x)=     0.000718
   iter:   3  x=   -0.005385  g=    8.558983 f(x)=     0.000005
   iter:   4  x=   -0.005385  g=    8.558197 f(x)=     0.000000
   iter:   5  x=   -0.005385  g=    8.558197 f(x)=    -0.000000
The output lambda is                    ....    -0.005385 (5 iterations)
The final length of the internal step   ....  0.300000000
Converting the step to cartesian space:
 Initial RMS(Int)=    0.0280975743
Transforming coordinates:
 Iter   0:  RMS(Cart)=    0.0779510964 RMS(Int)=    0.8308700939
 Iter   1:  RMS(Cart)=    0.0031220388 RMS(Int)=    0.0019511998
 Iter   2:  RMS(Cart)=    0.0003356594 RMS(Int)=    0.0002530043
 Iter   3:  RMS(Cart)=    0.0000448427 RMS(Int)=    0.0000364798
 Iter   4:  RMS(Cart)=    0.0000061584 RMS(Int)=    0.0000053681
 Iter   5:  RMS(Cart)=    0.0000008849 RMS(Int)=    0.0000007518
 Iter   6:  RMS(Cart)=    0.0000001243 RMS(Int)=    0.0000001110
 Iter   7:  RMS(Cart)=    0.0000000182 RMS(Int)=    0.0000000155
done
Storing new coordinates                 .... done

                                .--------------------.
          ----------------------|Geometry convergence|-------------------------
          Item                value                   Tolerance       Converged
          ---------------------------------------------------------------------
          Energy change      -0.0069363800            0.0000050000      NO
          RMS gradient        0.0029485090            0.0001000000      NO
          MAX gradient        0.0202164144            0.0003000000      NO
          RMS step            0.0280975743            0.0020000000      NO
          MAX step            0.1179233705            0.0040000000      NO
          ........................................................
          Max(Bonds)      0.0152      Max(Angles)    2.57
          Max(Dihed)        6.76      Max(Improp)    0.00
          ---------------------------------------------------------------------

The optimization has not yet converged - more geometry cycles are needed


    ---------------------------------------------------------------------------
                         Redundant Internal Coordinates
                            (Angstroem and degrees)

        Definition                    Value    dE/dq     Step     New-Value
    ----------------------------------------------------------------------------
     1. B(C   1,O   0)                1.2174  0.007206 -0.0094    1.2080   
     2. B(C   2,C   1)                1.5072  0.000955 -0.0044    1.5027   
     3. B(O   3,C   2)                1.4081  0.004734 -0.0099    1.3983   
     4. B(C   4,C   1)                1.5257 -0.002464  0.0055    1.5312   
     5. B(O   5,C   4)                1.4152  0.003471 -0.0085    1.4067   
     6. B(C   6,C   4)                1.5363 -0.002440  0.0051    1.5414   
     7. B(O   7,C   6)                1.4160  0.005576 -0.0134    1.4026   
     8. B(C   8,C   6)                1.5274 -0.001921  0.0035    1.5309   
     9. B(O   9,C   8)                1.4141 -0.000660  0.0005    1.4146   
    10. B(P  10,O   9)                1.5978 -0.002079  0.0019    1.5997   
    11. B(O  11,P  10)                1.4738  0.020216 -0.0152    1.4586   
    12. B(O  12,P  10)                1.5942 -0.001244  0.0016    1.5959   
    13. B(O  13,P  10)                1.5945  0.000996 -0.0009    1.5936   
    14. B(H  14,C   2)                1.0911 -0.000644  0.0012    1.0923   
    15. B(H  15,C   2)                1.0987 -0.001694  0.0048    1.1035   
    16. B(H  16,O   3)                0.9692  0.000599 -0.0023    0.9668   
    17. B(H  17,C   4)                1.0932 -0.000377  0.0007    1.0938   
    18. B(H  18,O   5)                0.9719  0.000788 -0.0027    0.9691   
    19. B(H  19,C   6)                1.0955 -0.000013 -0.0000    1.0955   
    20. B(H  20,O   7)                0.9724  0.000899 -0.0031    0.9694   
    21. B(H  21,C   8)                1.0965  0.000339 -0.0009    1.0957   
    22. B(H  22,C   8)                1.0967  0.000376 -0.0006    1.0962   
    23. B(H  23,O  12)                0.9602  0.001792 -0.0053    0.9548   
    24. B(H  24,O  13)                0.9581  0.002038 -0.0065    0.9517   
    25. A(C   2,C   1,C   4)          116.23  0.001918   -0.46    115.77   
    26. A(O   0,C   1,C   2)          120.91 -0.000033   -0.03    120.87   
    27. A(O   0,C   1,C   4)          122.64 -0.001876    0.48    123.12   
    28. A(O   3,C   2,H  14)          107.87  0.000655    0.07    107.95   
    29. A(C   1,C   2,H  15)          108.22  0.003201   -1.24    106.98   
    30. A(C   1,C   2,H  14)          109.83 -0.001642    0.59    110.42   
    31. A(C   1,C   2,O   3)          111.78 -0.000793    0.43    112.22   
    32. A(O   3,C   2,H  15)          109.80 -0.002554    1.06    110.86   
    33. A(H  14,C   2,H  15)          109.31  0.001129   -0.93    108.39   
    34. A(C   2,O   3,H  16)          106.90 -0.002168    0.62    107.52   
    35. A(C   1,C   4,C   6)          112.12  0.000344   -0.05    112.08   
    36. A(C   1,C   4,H  17)          109.47 -0.000781    0.40    109.87   
    37. A(C   1,C   4,O   5)          107.38  0.000699   -0.27    107.10   
    38. A(C   6,C   4,H  17)          110.41  0.000294   -0.04    110.37   
    39. A(O   5,C   4,C   6)          109.42 -0.001100    0.31    109.73   
    40. A(O   5,C   4,H  17)          107.91  0.000562   -0.37    107.54   
    41. A(C   4,O   5,H  18)          106.14 -0.002050    0.56    106.69   
    42. A(O   7,C   6,H  19)          105.85  0.000435    0.24    106.09   
    43. A(C   4,C   6,H  19)          108.00 -0.001032    0.27    108.26   
    44. A(C   4,C   6,O   7)          109.47 -0.000615    0.23    109.70   
    45. A(O   7,C   6,C   8)          110.88 -0.001671    0.63    111.50   
    46. A(C   4,C   6,C   8)          113.02  0.002866   -1.16    111.86   
    47. A(C   8,C   6,H  19)          109.34 -0.000124   -0.12    109.22   
    48. A(C   6,O   7,H  20)          106.84 -0.001632    0.40    107.24   
    49. A(C   6,C   8,O   9)          111.01 -0.001285   -0.04    110.97   
    50. A(H  21,C   8,H  22)          107.08 -0.002419    1.64    108.72   
    51. A(O   9,C   8,H  22)          107.46  0.001158   -0.62    106.85   
    52. A(C   6,C   8,H  22)          111.02  0.000708   -0.27    110.74   
    53. A(O   9,C   8,H  21)          110.89 -0.000121    0.00    110.89   
    54. A(C   6,C   8,H  21)          109.30  0.001900   -0.64    108.66   
    55. A(C   8,O   9,P  10)          116.28  0.003923   -0.91    115.37   
    56. A(O  11,P  10,O  12)          115.53  0.005410   -0.94    114.59   
    57. A(O   9,P  10,O  12)          104.86 -0.000827   -0.20    104.66   
    58. A(O   9,P  10,O  11)          115.99 -0.002378    0.12    116.11   
    59. A(O  12,P  10,O  13)          103.16 -0.006833    1.85    105.01   
    60. A(O  11,P  10,O  13)          113.39 -0.005879    1.68    115.07   
    61. A(O   9,P  10,O  13)          102.27  0.010814   -2.57     99.70   
    62. A(P  10,O  12,H  23)          111.28 -0.000919    0.20    111.48   
    63. A(P  10,O  13,H  24)          109.12  0.002278   -0.60    108.52   
    64. D(O   3,C   2,C   1,O   0)     14.56  0.000157   -2.16     12.40   
    65. D(O   3,C   2,C   1,C   4)   -170.70  0.000156   -1.95   -172.64   
    66. D(H  14,C   2,C   1,O   0)    134.26 -0.000625   -1.41    132.85   
    67. D(H  15,C   2,C   1,O   0)   -106.47  0.001705   -2.94   -109.41   
    68. D(H  15,C   2,C   1,C   4)     68.27  0.001704   -2.72     65.55   
    69. D(H  14,C   2,C   1,C   4)    -51.00 -0.000625   -1.19    -52.19   
    70. D(H  16,O   3,C   2,C   1)    -33.01 -0.002217    3.69    -29.33   
    71. D(H  16,O   3,C   2,H  15)     87.10 -0.000420    3.12     90.22   
    72. D(H  16,O   3,C   2,H  14)   -153.86 -0.000125    2.65   -151.21   
    73. D(H  17,C   4,C   1,O   0)   -144.46  0.000334   -0.58   -145.04   
    74. D(C   6,C   4,C   1,O   0)    -21.57  0.000389   -0.38    -21.95   
    75. D(C   6,C   4,C   1,C   2)    163.78  0.000278   -0.56    163.22   
    76. D(O   5,C   4,C   1,C   2)    -75.99 -0.000416   -0.39    -76.38   
    77. D(H  17,C   4,C   1,C   2)     40.90  0.000224   -0.76     40.13   
    78. D(O   5,C   4,C   1,O   0)     98.65 -0.000306   -0.20     98.45   
    79. D(H  18,O   5,C   4,H  17)    154.15  0.000459   -1.36    152.79   
    80. D(H  18,O   5,C   4,C   6)     33.98  0.000405   -1.26     32.71   
    81. D(H  18,O   5,C   4,C   1)    -87.95  0.000208   -1.23    -89.17   
    82. D(H  19,C   6,C   4,O   5)     59.92 -0.000687    1.33     61.25   
    83. D(H  19,C   6,C   4,C   1)    178.95 -0.000324    1.16    180.11   
    84. D(C   8,C   6,C   4,H  17)     62.39  0.000075    0.91     63.29   
    85. D(C   8,C   6,C   4,O   5)   -178.99  0.000264    0.62   -178.37   
    86. D(C   8,C   6,C   4,C   1)    -59.97  0.000628    0.46    -59.51   
    87. D(O   7,C   6,C   4,H  17)   -173.50 -0.000514    1.08   -172.43   
    88. D(O   7,C   6,C   4,O   5)    -54.88 -0.000324    0.79    -54.09   
    89. D(H  19,C   6,C   4,H  17)    -58.70 -0.000877    1.62    -57.09   
    90. D(O   7,C   6,C   4,C   1)     64.15  0.000039    0.62     64.77   
    91. D(H  20,O   7,C   6,H  19)   -179.74  0.000239   -0.41   -180.15   
    92. D(H  20,O   7,C   6,C   8)     61.79  0.001017   -0.73     61.06   
    93. D(H  20,O   7,C   6,C   4)    -63.57 -0.001036    0.14    -63.43   
    94. D(O   9,C   8,C   6,C   4)    -48.71 -0.000372    0.14    -48.58   
    95. D(H  22,C   8,C   6,O   7)    -52.58  0.000672   -0.79    -53.37   
    96. D(H  22,C   8,C   6,C   4)     70.76  0.000705   -0.85     69.90   
    97. D(H  21,C   8,C   6,H  19)    -51.02 -0.000180    0.09    -50.93   
    98. D(H  21,C   8,C   6,O   7)     65.32 -0.000694    0.66     65.98   
    99. D(H  21,C   8,C   6,C   4)   -171.34 -0.000662    0.60   -170.74   
   100. D(O   9,C   8,C   6,H  19)     71.61  0.000110   -0.38     71.23   
   101. D(H  22,C   8,C   6,H  19)   -168.92  0.001187   -1.37   -170.29   
   102. D(O   9,C   8,C   6,O   7)   -172.05 -0.000405    0.20   -171.85   
   103. D(P  10,O   9,C   8,H  22)    148.63 -0.001996    3.98    152.61   
   104. D(P  10,O   9,C   8,H  21)     31.91  0.000297    2.37     34.28   
   105. D(P  10,O   9,C   8,C   6)    -89.80 -0.001156    3.21    -86.58   
   106. D(O  13,P  10,O   9,C   8)    174.19  0.001618   -2.86    171.33   
   107. D(O  12,P  10,O   9,C   8)    -78.43 -0.002279   -1.81    -80.24   
   108. D(O  11,P  10,O   9,C   8)     50.28  0.002490   -3.15     47.13   
   109. D(H  23,O  12,P  10,O  13)     47.00  0.005867   -0.76     46.24   
   110. D(H  23,O  12,P  10,O  11)    171.29 -0.003313    2.13    173.43   
   111. D(H  23,O  12,P  10,O   9)    -59.72 -0.003215    1.43    -58.30   
   112. D(H  24,O  13,P  10,O  12)    107.45 -0.002169    6.76    114.21   
   113. D(H  24,O  13,P  10,O  11)    -18.23 -0.000589    5.76    -12.47   
   114. D(H  24,O  13,P  10,O   9)   -143.87 -0.001701    6.37   -137.50   
    ----------------------------------------------------------------------------

         *************************************************************
         *                GEOMETRY OPTIMIZATION CYCLE   3            *
         *************************************************************
---------------------------------
CARTESIAN COORDINATES (ANGSTROEM)
---------------------------------
  O     2.312544    0.855281   -0.454125
  C     1.896076   -0.048511    0.230778
  C     2.564139   -0.403420    1.529225
  O     3.477275    0.573323    1.938216
  C     0.755481   -0.972204   -0.205630
  O     1.343743   -2.147202   -0.707820
  C    -0.128744   -0.327834   -1.291316
  O     0.622647   -0.133753   -2.459606
  C    -0.762876    0.979190   -0.808374
  O    -1.360183    0.812494    0.463063
  P    -2.868418    0.279562    0.447307
  O    -3.136566   -0.863318   -0.418347
  O    -3.750848    1.571274    0.131757
  O    -3.074703    0.009773    2.004254
  H     1.820474   -0.521119    2.320527
  H     3.067756   -1.373529    1.377850
  H     3.823909    0.999180    1.142452
  H     0.150508   -1.251275    0.661869
  H     1.494420   -2.000708   -1.653908
  H    -0.920987   -1.037311   -1.554312
  H     1.328975    0.494801   -2.245895
  H    -1.503033    1.304071   -1.548039
  H    -0.003878    1.762948   -0.702374
  H    -3.614351    2.255750    0.783359
  H    -3.533259   -0.817462    2.109489

----------------------------
CARTESIAN COORDINATES (A.U.)
----------------------------
  NO LB    ZA    FRAG    MASS        X           Y           Z
   0 O   8.0000    0    15.999    4.370076    1.616246   -0.858173
   1 C   6.0000    0    12.011    3.583065   -0.091673    0.436107
   2 C   6.0000    0    12.011    4.845520   -0.762353    2.889816
   3 O   8.0000    0    15.999    6.571097    1.083423    3.662697
   4 C   6.0000    0    12.011    1.427652   -1.837200   -0.388584
   5 O   8.0000    0    15.999    2.539306   -4.057624   -1.337586
   6 C   6.0000    0    12.011   -0.243292   -0.619517   -2.440233
   7 O   8.0000    0    15.999    1.176632   -0.252756   -4.647982
   8 C   6.0000    0    12.011   -1.441627    1.850402   -1.527605
   9 O   8.0000    0    15.999   -2.570373    1.535392    0.875063
  10 P  15.0000    0    30.974   -5.420525    0.528295    0.845288
  11 O   8.0000    0    15.999   -5.927251   -1.631435   -0.790562
  12 O   8.0000    0    15.999   -7.088076    2.969278    0.248985
  13 O   8.0000    0    15.999   -5.810347    0.018469    3.787491
  14 H   1.0000    0     1.008    3.440197   -0.984772    4.385160
  15 H   1.0000    0     1.008    5.797219   -2.595594    2.603759
  16 H   1.0000    0     1.008    7.226141    1.888176    2.158922
  17 H   1.0000    0     1.008    0.284419   -2.364567    1.250751
  18 H   1.0000    0     1.008    2.824045   -3.780790   -3.125433
  19 H   1.0000    0     1.008   -1.740413   -1.960234   -2.937223
  20 H   1.0000    0     1.008    2.511400    0.935038   -4.244127
  21 H   1.0000    0     1.008   -2.840321    2.464337   -2.925369
  22 H   1.0000    0     1.008   -0.007328    3.331489   -1.327294
  23 H   1.0000    0     1.008   -6.830134    4.262749    1.480334
  24 H   1.0000    0     1.008   -6.676892   -1.544779    3.986356

      -----------------------------------------------------------      
     |                   =====================                   |     
     |                           x T B                           |     
     |                   =====================                   |     
     |                         S. Grimme                         |     
     |          Mulliken Center for Theoretical Chemistry        |     
     |                    University of Bonn                     |     
      -----------------------------------------------------------      

   * xtb version 6.5.1 (579679a) compiled by 'ehlert@majestix' on 2022-07-11

   xtb is free software: you can redistribute it and/or modify it under
   the terms of the GNU Lesser General Public License as published by
   the Free Software Foundation, either version 3 of the License, or
   (at your option) any later version.
   
   xtb is distributed in the hope that it will be useful,
   but WITHOUT ANY WARRANTY; without even the implied warranty of
   MERCHANTABILITY or FITNESS FOR A PARTICULAR PURPOSE.  See the
   GNU Lesser General Public License for more details.
   
   Cite this work as:
   * C. Bannwarth, E. Caldeweyher, S. Ehlert, A. Hansen, P. Pracht,
     J. Seibert, S. Spicher, S. Grimme, WIREs Comput. Mol. Sci., 2020, 11,
     e01493. DOI: 10.1002/wcms.1493
   
   for GFN2-xTB:
   * C. Bannwarth, S. Ehlert and S. Grimme., J. Chem. Theory Comput., 2019,
     15, 1652-1671. DOI: 10.1021/acs.jctc.8b01176
   for GFN1-xTB:
   * S. Grimme, C. Bannwarth, P. Shushkov, J. Chem. Theory Comput., 2017,
     13, 1989-2009. DOI: 10.1021/acs.jctc.7b00118
   for GFN0-xTB:
   * P. Pracht, E. Caldeweyher, S. Ehlert, S. Grimme, ChemRxiv, 2019, preprint.
     DOI: 10.26434/chemrxiv.8326202.v1
   for GFN-FF:
   * S. Spicher and S. Grimme, Angew. Chem. Int. Ed., 2020, 59, 15665-15673.
     DOI: 10.1002/anie.202004239
   
   for ALPB and GBSA implicit solvation:
   * S. Ehlert, M. Stahn, S. Spicher, S. Grimme, J. Chem. Theory Comput.,
     2021, 17, 4250-4261. DOI: 10.1021/acs.jctc.1c00471
   
   for DFT-D4:
   * E. Caldeweyher, C. Bannwarth and S. Grimme, J. Chem. Phys., 2017,
     147, 034112. DOI: 10.1063/1.4993215
   * E. Caldeweyher, S. Ehlert, A. Hansen, H. Neugebauer, S. Spicher,
     C. Bannwarth and S. Grimme, J. Chem. Phys., 2019, 150, 154122.
     DOI: 10.1063/1.5090222
[...]
     50      -0.000024   0.000464   0.000254   0.000732   0.048100   0.838791
     51      -0.021707   0.000180   0.018091   0.586929   0.000677  -0.000333
     52      -0.005291  -0.000129   0.004417   0.167196   0.000552  -0.000148
     53       0.029555  -0.000326  -0.023257  -0.786422  -0.001962   0.000524
     54      -0.001244  -0.000931   0.000585  -0.007322   0.027210  -0.005441
     55       0.000271  -0.000015   0.000176  -0.003490   0.002355  -0.001283
     56      -0.002161   0.000281   0.001973   0.005977  -0.094424   0.019541
     57       0.707752   0.171082  -0.330296   0.035673   0.009147  -0.000196
     58       0.500306   0.119281  -0.230801   0.024553   0.007113  -0.000332
     59       0.164568   0.040840  -0.077450   0.008603   0.003120  -0.000172
     60      -0.011358  -0.002016   0.003888  -0.002024   0.848437  -0.048126
     61      -0.007903   0.000087   0.006545  -0.000740   0.487928  -0.027287
     62      -0.001254  -0.001033   0.002433  -0.000726   0.158252  -0.009408
     63      -0.123045   0.646001   0.070834  -0.007029  -0.001343  -0.000417
     64       0.070057  -0.283367   0.001901   0.002627  -0.000160   0.000089
     65      -0.139499   0.670028   0.050221  -0.006527  -0.000863  -0.000220
     66      -0.322543  -0.043398  -0.705522   0.008878   0.000367   0.000317
     67      -0.265249  -0.003708  -0.564346   0.007369   0.000926   0.000191
     68      -0.008776  -0.020829  -0.030887   0.001088   0.001345   0.000253
     69      -0.000102  -0.000476  -0.000716  -0.000043  -0.001398  -0.000236
     70       0.000022  -0.000006   0.000369   0.000015  -0.000083  -0.000002
     71       0.000014  -0.000234  -0.000551  -0.000452  -0.001693  -0.000464
     72       0.000249   0.000016   0.000562   0.000320   0.000107  -0.000027
     73      -0.000026   0.000022   0.000303  -0.000151   0.000137   0.000015
     74      -0.000475  -0.000190   0.001398  -0.000194   0.000237   0.000085
                 72         73         74    
      0       0.000089   0.000002  -0.000026
      1       0.000061   0.000007  -0.000014
      2      -0.000056  -0.000040   0.000007
      3      -0.000204   0.000028   0.000045
      4      -0.000118   0.000025   0.000038
      5      -0.000194   0.000100   0.000018
      6       0.000042  -0.000004   0.000003
      7      -0.000084  -0.000013  -0.000012
      8       0.000048  -0.000041  -0.000002
      9      -0.000432   0.000021   0.000001
     10      -0.000026  -0.000004  -0.000005
     11       0.000825  -0.000044  -0.000015
     12       0.001489  -0.000005   0.000015
     13      -0.001593  -0.000016  -0.000061
     14      -0.001870   0.000023  -0.000005
     15       0.015009  -0.000008  -0.000007
     16       0.005458   0.000007   0.000023
     17      -0.059425  -0.000039   0.000009
     18      -0.000752   0.000051   0.000086
     19      -0.000051  -0.000051  -0.000011
     20       0.000327  -0.000025  -0.000054
     21      -0.004824  -0.000129  -0.000050
     22      -0.003690  -0.000041  -0.000009
     23      -0.000969  -0.000010   0.000028
     24       0.000091   0.000156   0.000279
     25      -0.000078   0.000065   0.000117
     26      -0.000007  -0.000234  -0.000264
     27       0.000022  -0.000269  -0.000440
     28       0.000006   0.000062  -0.000294
     29      -0.000079   0.000173   0.000192
     30       0.000018  -0.000318   0.000089
     31      -0.000034  -0.000022   0.000337
     32       0.000028  -0.000382   0.000049
     33      -0.000004   0.000268   0.000177
     34       0.000009   0.000052  -0.000103
     35      -0.000030   0.000500   0.000304
     36       0.000030  -0.037691  -0.002298
     37       0.000012  -0.004518  -0.000707
     38       0.000038  -0.049375  -0.003399
     39      -0.000021  -0.002566   0.035686
     40       0.000048  -0.002626   0.043585
     41      -0.000001  -0.001804   0.027062
     42      -0.000311  -0.000068  -0.000289
     43       0.000326   0.000007   0.000043
     44       0.000120   0.000416   0.000013
     45       0.000306  -0.000111   0.000122
     46      -0.000273   0.000125  -0.000023
     47       0.000715   0.000044   0.000038
     48       0.007444  -0.000249   0.000048
     49       0.000984  -0.000033   0.000038
     50      -0.012633   0.000554   0.000149
     51      -0.004035   0.000301   0.000747
     52      -0.001825  -0.000026   0.000537
     53       0.002765  -0.000296   0.000370
     54      -0.254346  -0.000039   0.000122
     55      -0.056981  -0.000076  -0.000264
     56       0.958181   0.000605  -0.000256
     57       0.002682  -0.000187  -0.000231
     58       0.001396   0.000120  -0.000557
     59       0.000434   0.000023  -0.000916
     60       0.083984   0.001956   0.000341
     61       0.049827   0.000966   0.000141
     62       0.017995   0.000410  -0.000002
     63      -0.001018   0.000060   0.000327
     64       0.000504  -0.000181   0.000147
     65      -0.000317   0.000569  -0.000107
     66       0.000623  -0.000518  -0.000800
     67       0.000608  -0.000426  -0.000486
     68       0.000368   0.000326  -0.000133
     69      -0.000445   0.608377   0.039577
     70      -0.000106   0.067247   0.005327
     71      -0.000639   0.785559   0.052420
     72      -0.000009   0.038326  -0.572262
     73      -0.000305   0.044920  -0.690292
     74      -0.000130   0.029367  -0.433295


-----------
IR SPECTRUM
-----------

 Mode   freq       eps      Int      T**2         TX        TY        TZ
       cm**-1   L/(mol*cm) km/mol    a.u.
----------------------------------------------------------------------------
  6:     24.23   0.000384    1.94  0.004944  ( 0.005004  0.062189  0.032432)
  7:     30.01   0.000172    0.87  0.001793  ( 0.023786  0.016911 -0.030673)
  8:     32.66   0.000782    3.95  0.007472  (-0.010997  0.075607  0.040435)
  9:     64.65   0.000215    1.09  0.001040  (-0.023153 -0.004353  0.022023)
 10:     88.81   0.000324    1.64  0.001140  ( 0.024294 -0.001445  0.023407)
 11:    120.76   0.005297   26.77  0.013689  (-0.112694  0.019282 -0.024846)
 12:    127.63   0.001553    7.85  0.003797  ( 0.040773 -0.044560 -0.012190)
 13:    172.83   0.005352   27.05  0.009664  ( 0.084553 -0.030957 -0.039450)
 14:    197.61   0.010157   51.33  0.016039  (-0.071327  0.077199  0.070654)
 15:    207.94   0.000159    0.80  0.000238  (-0.010416  0.006622 -0.009267)
 16:    216.41   0.008547   43.19  0.012324  (-0.044462 -0.048214  0.089571)
 17:    247.00   0.007318   36.98  0.009246  ( 0.090002 -0.018298 -0.028478)
 18:    264.62   0.010459   52.85  0.012334  ( 0.050098  0.078496 -0.060521)
 19:    268.59   0.004499   22.73  0.005227  ( 0.064017  0.011526  0.031554)
 20:    314.33   0.009142   46.20  0.009076  (-0.062796 -0.037394  0.061109)
 21:    321.79   0.023807  120.31  0.023088  (-0.077635  0.113868 -0.063992)
 22:    331.93   0.002829   14.30  0.002660  ( 0.022028 -0.045553  0.009973)
 23:    349.16   0.014638   73.97  0.013083  ( 0.083568  0.077573 -0.009034)
 24:    362.07   0.004637   23.44  0.003997  (-0.027682 -0.047261 -0.031575)
 25:    403.54   0.014755   74.57  0.011410  (-0.103136 -0.017951 -0.021240)
 26:    411.52   0.013225   66.83  0.010029  (-0.006823 -0.093507 -0.035192)
 27:    457.95   0.018744   94.72  0.012773  ( 0.061487  0.067275 -0.066831)
 28:    464.80   0.002260   11.42  0.001517  (-0.003043  0.028589 -0.026282)
 29:    502.54   0.017606   88.98  0.010933  ( 0.067165 -0.076589  0.023581)
 30:    543.88   0.013818   69.83  0.007928  (-0.044166  0.023120 -0.073777)
 31:    565.21   0.008314   42.01  0.004590  (-0.027556  0.061798  0.003458)
 32:    577.06   0.018462   93.30  0.009984  (-0.070047  0.060253 -0.038039)
 33:    729.27   0.020833  105.28  0.008915  (-0.086741 -0.037042  0.004297)
 34:    755.78   0.000295    1.49  0.000122  ( 0.005487  0.009306 -0.002232)
 35:    795.86   0.061587  311.23  0.024149  (-0.065695 -0.125894  0.063114)
 36:    836.35   0.005024   25.39  0.001875  ( 0.012171 -0.041358 -0.004010)
 37:    846.83   0.000315    1.59  0.000116  (-0.009985 -0.003134 -0.002556)
 38:    890.34   0.041960  212.05  0.014707  (-0.071660  0.039354  0.089572)
 39:    893.87   0.017744   89.67  0.006195  ( 0.001580 -0.010692 -0.077960)
 40:    906.88   0.083059  419.75  0.028581  (-0.122740  0.112550  0.029128)
 41:    932.40   0.003565   18.02  0.001193  (-0.006816  0.032559  0.009316)
 42:   1018.63   0.013009   65.74  0.003985  (-0.024006 -0.036861 -0.045281)
 43:   1042.32   0.019318   97.63  0.005784  ( 0.029468  0.057439  0.040201)
 44:   1059.80   0.005646   28.53  0.001663  (-0.039356 -0.006180  0.008691)
 45:   1096.88   0.024017  121.37  0.006833  ( 0.008130  0.010576 -0.081577)
 46:   1104.88   0.035640  180.11  0.010066  (-0.055007  0.048391  0.068546)
 47:   1112.35   0.002965   14.98  0.000832  (-0.018058 -0.022193  0.003621)
 48:   1131.92   0.009089   45.93  0.002506  ( 0.038818  0.029916 -0.010193)
 49:   1160.39   0.004216   21.31  0.001134  (-0.020360  0.021350  0.016232)
 50:   1175.02   0.004552   23.00  0.001209  (-0.026074  0.022375 -0.005325)
 51:   1198.59   0.000594    3.00  0.000155  (-0.000471 -0.006755 -0.010437)
 52:   1207.51   0.009507   48.05  0.002457  (-0.020944 -0.042666  0.014071)
 53:   1209.90   0.021821  110.27  0.005628  ( 0.032123  0.037931  0.056192)
 54:   1271.85   0.007129   36.03  0.001749  (-0.032899 -0.012255 -0.022730)
 55:   1287.27   0.007851   39.68  0.001903  (-0.005898  0.042680 -0.006849)
 56:   1301.18   0.055281  279.37  0.013258  ( 0.073986 -0.003045  0.088174)
 57:   1327.21   0.012209   61.70  0.002871  (-0.043095 -0.030974 -0.007364)
 58:   1330.20   0.009276   46.88  0.002176  ( 0.006920 -0.003811  0.045975)
 59:   1334.49   0.017555   88.72  0.004105  (-0.010986  0.051119 -0.037031)
 60:   1349.29   0.019006   96.05  0.004396  (-0.013362  0.035372  0.054460)
 61:   1420.97   0.001899    9.60  0.000417  (-0.005285 -0.012371 -0.015364)
 62:   1455.72   0.001844    9.32  0.000395  ( 0.014039  0.014061  0.000730)
 63:   1727.20   0.049074  248.00  0.008867  ( 0.057696  0.024499 -0.070267)
 64:   2862.35   0.004450   22.49  0.000485  ( 0.002287  0.021758 -0.002553)
 65:   2902.88   0.006363   32.16  0.000684  (-0.023638 -0.009787 -0.005433)
 66:   2939.66   0.001684    8.51  0.000179  (-0.010514 -0.007981  0.002121)
 67:   2953.58   0.002580   13.04  0.000273  (-0.009231  0.006025 -0.012293)
 68:   2954.31   0.011377   57.49  0.001202  ( 0.029273  0.018530 -0.001192)
 69:   2992.26   0.002294   11.59  0.000239  (-0.015241 -0.002158  0.001518)
 70:   3376.89   0.013789   69.69  0.001274  ( 0.029135  0.009393  0.018364)
 71:   3402.32   0.008313   42.01  0.000762  (-0.002251  0.004929  0.027076)
 72:   3419.34   0.007628   38.55  0.000696  ( 0.005012 -0.002013  0.025825)
 73:   3600.12   0.012665   64.01  0.001098  ( 0.014963  0.007259  0.028658)
 74:   3627.33   0.016742   84.61  0.001440  (-0.008995 -0.030279 -0.021039)

* The epsilon (eps) is given for a Dirac delta lineshape.
** The dipole moment derivative (T) already includes vibrational overlap.

The first frequency considered to be a vibration is 6
The total number of vibrations considered is 69


--------------------------
THERMOCHEMISTRY AT 298.15K
--------------------------

Temperature         ... 298.15 K
Pressure            ... 1.00 atm
Total Mass          ... 230.11 AMU

Throughout the following assumptions are being made:
  (1) The electronic state is orbitally nondegenerate
  (2) There are no thermally accessible electronically excited states
  (3) Hindered rotations indicated by low frequency modes are not
      treated as such but are treated as vibrations and this may
      cause some error
  (4) All equations used are the standard statistical mechanics
      equations for an ideal gas
  (5) All vibrations are strictly harmonic

freq.      24.23  E(vib)   ...       0.56 
freq.      30.01  E(vib)   ...       0.55 
freq.      32.66  E(vib)   ...       0.55 
freq.      64.65  E(vib)   ...       0.50 
freq.      88.81  E(vib)   ...       0.47 
freq.     120.76  E(vib)   ...       0.44 
freq.     127.63  E(vib)   ...       0.43 
freq.     172.83  E(vib)   ...       0.38 
freq.     197.61  E(vib)   ...       0.35 
freq.     207.94  E(vib)   ...       0.34 
freq.     216.41  E(vib)   ...       0.34 
freq.     247.00  E(vib)   ...       0.31 
freq.     264.62  E(vib)   ...       0.29 
freq.     268.59  E(vib)   ...       0.29 
freq.     314.33  E(vib)   ...       0.25 
freq.     321.79  E(vib)   ...       0.25 
freq.     331.93  E(vib)   ...       0.24 
freq.     349.16  E(vib)   ...       0.23 
freq.     362.07  E(vib)   ...       0.22 
freq.     403.54  E(vib)   ...       0.19 
freq.     411.52  E(vib)   ...       0.19 
freq.     457.95  E(vib)   ...       0.16 
freq.     464.80  E(vib)   ...       0.16 
freq.     502.54  E(vib)   ...       0.14 
freq.     543.88  E(vib)   ...       0.12 
freq.     565.21  E(vib)   ...       0.11 
freq.     577.06  E(vib)   ...       0.11 
freq.     729.27  E(vib)   ...       0.06 
freq.     755.78  E(vib)   ...       0.06 
freq.     795.86  E(vib)   ...       0.05 
freq.     836.35  E(vib)   ...       0.04 
freq.     846.83  E(vib)   ...       0.04 
freq.     890.34  E(vib)   ...       0.04 
freq.     893.87  E(vib)   ...       0.03 
freq.     906.88  E(vib)   ...       0.03 
freq.     932.40  E(vib)   ...       0.03 
freq.    1018.63  E(vib)   ...       0.02 
freq.    1042.32  E(vib)   ...       0.02 
freq.    1059.80  E(vib)   ...       0.02 
freq.    1096.88  E(vib)   ...       0.02 
freq.    1104.88  E(vib)   ...       0.02 
freq.    1112.35  E(vib)   ...       0.01 
freq.    1131.92  E(vib)   ...       0.01 
freq.    1160.39  E(vib)   ...       0.01 
freq.    1175.02  E(vib)   ...       0.01 
freq.    1198.59  E(vib)   ...       0.01 
freq.    1207.51  E(vib)   ...       0.01 
freq.    1209.90  E(vib)   ...       0.01 
freq.    1271.85  E(vib)   ...       0.01 
freq.    1287.27  E(vib)   ...       0.01 
freq.    1301.18  E(vib)   ...       0.01 
freq.    1327.21  E(vib)   ...       0.01 
freq.    1330.20  E(vib)   ...       0.01 
freq.    1334.49  E(vib)   ...       0.01 
freq.    1349.29  E(vib)   ...       0.01 
freq.    1420.97  E(vib)   ...       0.00 
freq.    1455.72  E(vib)   ...       0.00 
freq.    1727.20  E(vib)   ...       0.00 
freq.    2862.35  E(vib)   ...       0.00 
freq.    2902.88  E(vib)   ...       0.00 
freq.    2939.66  E(vib)   ...       0.00 
freq.    2953.58  E(vib)   ...       0.00 
freq.    2954.31  E(vib)   ...       0.00 
freq.    2992.26  E(vib)   ...       0.00 
freq.    3376.89  E(vib)   ...       0.00 
freq.    3402.32  E(vib)   ...       0.00 
freq.    3419.34  E(vib)   ...       0.00 
freq.    3600.12  E(vib)   ...       0.00 
freq.    3627.33  E(vib)   ...       0.00 

------------
INNER ENERGY
------------

The inner energy is: U= E(el) + E(ZPE) + E(vib) + E(rot) + E(trans)
    E(el)   - is the total energy from the electronic structure calculation
              = E(kin-el) + E(nuc-el) + E(el-el) + E(nuc-nuc)
    E(ZPE)  - the the zero temperature vibrational energy from the frequency calculation
    E(vib)  - the the finite temperature correction to E(ZPE) due to population
              of excited vibrational states
    E(rot)  - is the rotational thermal energy
    E(trans)- is the translational thermal energy

Summary of contributions to the inner energy U:
Electronic energy                ...    -51.49284199 Eh
Zero point energy                ...      0.17681246 Eh     110.95 kcal/mol
Thermal vibrational correction   ...      0.01400615 Eh       8.79 kcal/mol
Thermal rotational correction    ...      0.00141627 Eh       0.89 kcal/mol
Thermal translational correction ...      0.00141627 Eh       0.89 kcal/mol
-----------------------------------------------------------------------
Total thermal energy                    -51.29919083 Eh


Summary of corrections to the electronic energy:
(perhaps to be used in another calculation)
Total thermal correction                  0.01683869 Eh      10.57 kcal/mol
Non-thermal (ZPE) correction              0.17681246 Eh     110.95 kcal/mol
-----------------------------------------------------------------------
Total correction                          0.19365116 Eh     121.52 kcal/mol


--------
ENTHALPY
--------

The enthalpy is H = U + kB*T
                kB is Boltzmann's constant
Total free energy                 ...    -51.29919083 Eh 
Thermal Enthalpy correction       ...      0.00094421 Eh       0.59 kcal/mol
-----------------------------------------------------------------------
Total Enthalpy                    ...    -51.29824662 Eh


Note: Only C1 symmetry has been detected, increase convergence thresholds 
      if your molecule has a higher symmetry. Symmetry factor of 1.0 is   
      used for the rotational entropy correction. 
 

Note: Rotational entropy computed according to Herzberg 
Infrared and Raman Spectra, Chapter V,1, Van Nostrand Reinhold, 1945 
Point Group:  C1, Symmetry Number:   1  
Rotational constants in cm-1:     0.030335     0.013301     0.011327 

Vibrational entropy computed according to the QRRHO of S. Grimme
Chem.Eur.J. 2012 18 9955


-------
ENTROPY
-------

The entropy contributions are T*S = T*(S(el)+S(vib)+S(rot)+S(trans))
     S(el)   - electronic entropy
     S(vib)  - vibrational entropy
     S(rot)  - rotational entropy
     S(trans)- translational entropy
The entropies will be listed as multiplied by the temperature to get
units of energy

Electronic entropy                ...      0.00000000 Eh      0.00 kcal/mol
Vibrational entropy               ...      0.02509026 Eh     15.74 kcal/mol
Rotational entropy                ...      0.01531560 Eh      9.61 kcal/mol
Translational entropy             ...      0.02005154 Eh     12.58 kcal/mol
-----------------------------------------------------------------------
Final entropy term                ...      0.06045740 Eh     37.94 kcal/mol

In case the symmetry of your molecule has not been determined correctly
or in case you have a reason to use a different symmetry number we print 
out the resulting rotational entropy values for sn=1,12 :
 --------------------------------------------------------
|  sn= 1 | S(rot)=       0.01531560 Eh      9.61 kcal/mol|
|  sn= 2 | S(rot)=       0.01466114 Eh      9.20 kcal/mol|
|  sn= 3 | S(rot)=       0.01427831 Eh      8.96 kcal/mol|
|  sn= 4 | S(rot)=       0.01400668 Eh      8.79 kcal/mol|
|  sn= 5 | S(rot)=       0.01379600 Eh      8.66 kcal/mol|
|  sn= 6 | S(rot)=       0.01362385 Eh      8.55 kcal/mol|
|  sn= 7 | S(rot)=       0.01347831 Eh      8.46 kcal/mol|
|  sn= 8 | S(rot)=       0.01335223 Eh      8.38 kcal/mol|
|  sn= 9 | S(rot)=       0.01324102 Eh      8.31 kcal/mol|
|  sn=10 | S(rot)=       0.01314154 Eh      8.25 kcal/mol|
|  sn=11 | S(rot)=       0.01305155 Eh      8.19 kcal/mol|
|  sn=12 | S(rot)=       0.01296940 Eh      8.14 kcal/mol|
 --------------------------------------------------------


-------------------
GIBBS FREE ENERGY
-------------------

The Gibbs free energy is G = H - T*S

Total enthalpy                    ...    -51.29824662 Eh 
Total entropy correction          ...     -0.06045740 Eh    -37.94 kcal/mol
-----------------------------------------------------------------------
Final Gibbs free energy         ...    -51.35870402 Eh

For completeness - the Gibbs free energy minus the electronic energy
G-E(el)                           ...      0.13413797 Eh     84.17 kcal/mol



Timings for individual modules:

Sum of individual times         ...      367.375 sec (=   6.123 min)
Geometry relaxation             ...        2.019 sec (=   0.034 min)   0.5 %
Numerical frequency calculation ...      363.572 sec (=   6.060 min)  99.0 %
XTB module                      ...        1.784 sec (=   0.030 min)   0.5 %
                             ****ORCA TERMINATED NORMALLY****
TOTAL RUN TIME: 0 days 0 hours 6 minutes 9 seconds 113 msec
