
                                 *****************
                                 * O   R   C   A *
                                 *****************

                                            #,                                       
                                            ###                                      
                                            ####                                     
                                            #####                                    
                                            ######                                   
                                           ########,                                 
                                     ,,################,,,,,                         
                               ,,#################################,,                 
                          ,,##########################################,,             
                       ,#########################################, ''#####,          
                    ,#############################################,,   '####,        
                  ,##################################################,,,,####,       
                ,###########''''           ''''###############################       
              ,#####''   ,,,,##########,,,,          '''####'''          '####       
            ,##' ,,,,###########################,,,                        '##       
           ' ,,###''''                  '''############,,,                           
         ,,##''                                '''############,,,,        ,,,,,,###''
      ,#''                                            '''#######################'''  
     '                                                          ''''####''''         
             ,#######,   #######,   ,#######,      ##                                
            ,#'     '#,  ##    ##  ,#'     '#,    #''#        ######   ,####,        
            ##       ##  ##   ,#'  ##            #'  '#       #        #'  '#        
            ##       ##  #######   ##           ,######,      #####,   #    #        
            '#,     ,#'  ##    ##  '#,     ,#' ,#      #,         ##   #,  ,#        
             '#######'   ##     ##  '#######'  #'      '#     #####' # '####'        



                  #######################################################
                  #                        -***-                        #
                  #          Department of theory and spectroscopy      #
                  #    Directorship and core code : Frank Neese         #
                  #        Max Planck Institute fuer Kohlenforschung    #
                  #                Kaiser Wilhelm Platz 1               #
                  #                 D-45470 Muelheim/Ruhr               #
                  #                      Germany                        #
                  #                                                     #
                  #                  All rights reserved                #
                  #                        -***-                        #
                  #######################################################


                         Program Version 5.0.3 -  RELEASE  -


 With contributions from (in alphabetic order):
   Daniel Aravena         : Magnetic Suceptibility
   Michael Atanasov       : Ab Initio Ligand Field Theory (pilot matlab implementation)
   Alexander A. Auer      : GIAO ZORA, VPT2 properties, NMR spectrum
   Ute Becker             : Parallelization
   Giovanni Bistoni       : ED, misc. LED, open-shell LED, HFLD
   Martin Brehm           : Molecular dynamics
   Dmytro Bykov           : SCF Hessian
   Vijay G. Chilkuri      : MRCI spin determinant printing, contributions to CSF-ICE
   Dipayan Datta          : RHF DLPNO-CCSD density
   Achintya Kumar Dutta   : EOM-CC, STEOM-CC
   Dmitry Ganyushin       : Spin-Orbit,Spin-Spin,Magnetic field MRCI
   Miquel Garcia          : C-PCM and meta-GGA Hessian, CC/C-PCM, Gaussian charge scheme
   Yang Guo               : DLPNO-NEVPT2, F12-NEVPT2, CIM, IAO-localization
   Andreas Hansen         : Spin unrestricted coupled pair/coupled cluster methods
   Benjamin Helmich-Paris : MC-RPA, TRAH-SCF, COSX integrals
   Lee Huntington         : MR-EOM, pCC
   Robert Izsak           : Overlap fitted RIJCOSX, COSX-SCS-MP3, EOM
   Marcus Kettner         : VPT2
   Christian Kollmar      : KDIIS, OOCD, Brueckner-CCSD(T), CCSD density, CASPT2, CASPT2-K
   Simone Kossmann        : Meta GGA functionals, TD-DFT gradient, OOMP2, MP2 Hessian
   Martin Krupicka        : Initial AUTO-CI
   Lucas Lang             : DCDCAS
   Marvin Lechner         : AUTO-CI (C++ implementation), FIC-MRCC
   Dagmar Lenk            : GEPOL surface, SMD
   Dimitrios Liakos       : Extrapolation schemes; Compound Job, initial MDCI parallelization
   Dimitrios Manganas     : Further ROCIS development; embedding schemes
   Dimitrios Pantazis     : SARC Basis sets
   Anastasios Papadopoulos: AUTO-CI, single reference methods and gradients
   Taras Petrenko         : DFT Hessian,TD-DFT gradient, ASA, ECA, R-Raman, ABS, FL, XAS/XES, NRVS
   Peter Pinski           : DLPNO-MP2, DLPNO-MP2 Gradient
   Christoph Reimann      : Effective Core Potentials
   Marius Retegan         : Local ZFS, SOC
   Christoph Riplinger    : Optimizer, TS searches, QM/MM, DLPNO-CCSD(T), (RO)-DLPNO pert. Triples
   Tobias Risthaus        : Range-separated hybrids, TD-DFT gradient, RPA, STAB
   Michael Roemelt        : Original ROCIS implementation
   Masaaki Saitow         : Open-shell DLPNO-CCSD energy and density
   Barbara Sandhoefer     : DKH picture change effects
   Avijit Sen             : IP-ROCIS
   Kantharuban Sivalingam : CASSCF convergence, NEVPT2, FIC-MRCI
   Bernardo de Souza      : ESD, SOC TD-DFT
   Georgi Stoychev        : AutoAux, RI-MP2 NMR, DLPNO-MP2 response
   Willem Van den Heuvel  : Paramagnetic NMR
   Boris Wezisla          : Elementary symmetry handling
   Frank Wennmohs         : Technical directorship


 We gratefully acknowledge several colleagues who have allowed us to
 interface, adapt or use parts of their codes:
   Stefan Grimme, W. Hujo, H. Kruse, P. Pracht,  : VdW corrections, initial TS optimization,
                  C. Bannwarth, S. Ehlert          DFT functionals, gCP, sTDA/sTD-DF
   Ed Valeev, F. Pavosevic, A. Kumar             : LibInt (2-el integral package), F12 methods
   Garnet Chan, S. Sharma, J. Yang, R. Olivares  : DMRG
   Ulf Ekstrom                                   : XCFun DFT Library
   Mihaly Kallay                                 : mrcc  (arbitrary order and MRCC methods)
   Jiri Pittner, Ondrej Demel                    : Mk-CCSD
   Frank Weinhold                                : gennbo (NPA and NBO analysis)
   Christopher J. Cramer and Donald G. Truhlar   : smd solvation model
   Lars Goerigk                                  : TD-DFT with DH, B97 family of functionals
   V. Asgeirsson, H. Jonsson                     : NEB implementation
   FAccTs GmbH                                   : IRC, NEB, NEB-TS, DLPNO-Multilevel, CI-OPT
                                                   MM, QMMM, 2- and 3-layer-ONIOM, Crystal-QMMM,
                                                   LR-CPCM, SF, NACMEs, symmetry and pop. for TD-DFT,
                                                   nearIR, NL-DFT gradient (VV10), updates on ESD,
                                                   ML-optimized integration grids
   S Lehtola, MJT Oliveira, MAL Marques          : LibXC Library
   Liviu Ungur et al                             : ANISO software


 Your calculation uses the libint2 library for the computation of 2-el integrals
 For citations please refer to: http://libint.valeyev.net

 Your ORCA version has been built with support for libXC version: 5.1.0
 For citations please refer to: https://tddft.org/programs/libxc/

 This ORCA versions uses:
   CBLAS   interface :  Fast vector & matrix operations
   LAPACKE interface :  Fast linear algebra routines
   SCALAPACK package :  Parallel linear algebra routines
   Shared memory     :  Shared parallel matrices
   BLAS/LAPACK       :  OpenBLAS 0.3.15  USE64BITINT DYNAMIC_ARCH NO_AFFINITY Haswell SINGLE_THREADED
        Core in use  :  Haswell
   Copyright (c) 2011-2014, The OpenBLAS Project


Your calculation utilizes the semiempirical GFN2-xTB method
Please cite in your paper:
C. Bannwarth, Ehlert S., S. Grimme,  J. Chem. Theory Comput., 15, (2019), 1652.
   

================================================================================

================================================================================
                                        WARNINGS
                       Please study these warnings very carefully!
================================================================================


WARNING: Geometry Optimization
  ===> : Switching off AutoStart
         For restart on a previous wavefunction, please use MOREAD

WARNING: Found dipole moment calculation with XTB calculation
  ===> : Switching off dipole moment calculation


WARNING: TRAH-SCF for XTB is not implemented!
  ===> : Turning TRAH off!

================================================================================
                                       INPUT FILE
================================================================================
NAME = /tmp/C00118.inp
|  1> ! XTB2 opt numfreq
|  2> * XYZ 0 1
|  3> O -2.4717 1.5459 1.2627
|  4> C -2.7057 0.4516 0.7551
|  5> C -1.7120 -0.3269 -0.0835
|  6> O -1.7638 -1.7031 0.2930
|  7> C -0.2985 0.2124 0.1120
|  8> O 0.5888 -0.5681 -0.6798
|  9> P 2.1268 -0.1446 -0.7717
| 10> O 3.0263 -1.0463 -1.5414
| 11> O 2.1827 1.3943 -1.1752
| 12> O 2.6081 -0.0590 0.7500
| 13> H -3.7079 -0.0034 0.8375
| 14> H -2.0156 -0.2648 -1.1334
| 15> H -0.9646 -2.1150 -0.0903
| 16> H -0.2391 1.2632 -0.1889
| 17> H 0.0052 0.1230 1.1607
| 18> H 2.0433 1.9766 -0.4077
| 19> H 3.2976 -0.7360 0.9009
| 20> *
| 21> 
| 22>                          ****END OF INPUT****
================================================================================

                       *****************************
                       * Geometry Optimization Run *
                       *****************************

Geometry optimization settings:
Update method            Update   .... BFGS
Choice of coordinates    CoordSys .... Z-matrix Internals
Initial Hessian          InHess   .... Almoef's Model

Convergence Tolerances:
Energy Change            TolE     ....  5.0000e-06 Eh
Max. Gradient            TolMAXG  ....  3.0000e-04 Eh/bohr
RMS Gradient             TolRMSG  ....  1.0000e-04 Eh/bohr
Max. Displacement        TolMAXD  ....  4.0000e-03 bohr
RMS Displacement         TolRMSD  ....  2.0000e-03 bohr
Strict Convergence                ....  False
------------------------------------------------------------------------------
                        ORCA OPTIMIZATION COORDINATE SETUP
------------------------------------------------------------------------------

The optimization will be done in new redundant internal coordinates
Making redundant internal coordinates   ...  (new redundants) done
Evaluating the initial hessian          ...  (Almloef) done
Evaluating the coordinates              ...  done
Calculating the B-matrix                .... done
Calculating the G-matrix                .... done
Diagonalizing the G-matrix              .... done
Small eigenvalue found = 1.405e-02
The first mode is                       ....   26
The number of degrees of freedom        ....   45

    -----------------------------------------------------------------
                    Redundant Internal Coordinates


    -----------------------------------------------------------------
         Definition                    Initial Value    Approx d2E/dq
    -----------------------------------------------------------------
      1. B(C   1,O   0)                  1.2288         1.011784   
      2. B(C   2,C   1)                  1.5155         0.394008   
      3. B(O   3,C   2)                  1.4277         0.487201   
      4. B(C   4,C   2)                  1.5255         0.379849   
      5. B(O   5,C   4)                  1.4225         0.496669   
      6. B(P   6,O   5)                  1.5979         0.876394   
      7. B(O   7,P   6)                  1.4882         1.311510   
      8. B(O   8,P   6)                  1.5919         0.895877   
      9. B(O   9,P   6)                  1.5983         0.875080   
     10. B(H  10,C   1)                  1.1037         0.342388   
     11. B(H  11,C   2)                  1.0947         0.353965   
     12. B(H  12,O   3)                  0.9774         0.487769   
     13. B(H  13,C   4)                  1.0946         0.354006   
     14. B(H  14,C   4)                  1.0954         0.352970   
     15. B(H  15,O   8)                  0.9734         0.494930   
     16. B(H  16,O   9)                  0.9780         0.486662   
     17. A(O   0,C   1,H  10)          120.6103         0.378101   
     18. A(O   0,C   1,C   2)          124.1381         0.434058   
     19. A(C   2,C   1,H  10)          115.1457         0.324469   
     20. A(C   1,C   2,C   4)          110.7960         0.367727   
     21. A(C   1,C   2,O   3)          108.9925         0.381454   
     22. A(C   1,C   2,H  11)          108.6461         0.326248   
     23. A(O   3,C   2,H  11)          107.3100         0.335878   
     24. A(C   4,C   2,H  11)          111.0907         0.324291   
     25. A(O   3,C   2,C   4)          109.9133         0.379041   
     26. A(C   2,O   3,H  12)          105.8510         0.351368   
     27. A(O   5,C   4,H  13)          109.8681         0.336963   
     28. A(H  13,C   4,H  14)          109.0535         0.289153   
     29. A(C   2,C   4,O   5)          108.2203         0.380308   
     30. A(O   5,C   4,H  14)          108.3711         0.336798   
     31. A(C   2,C   4,H  13)          110.7581         0.324297   
     32. A(C   2,C   4,H  14)          110.5318         0.324141   
     33. A(C   4,O   5,P   6)          119.1426         0.468312   
     34. A(O   5,P   6,O   7)          116.8042         0.602449   
     35. A(O   8,P   6,O   9)          100.3101         0.559854   
     36. A(O   7,P   6,O   9)          110.0516         0.602275   
     37. A(O   5,P   6,O   9)          104.4352         0.557516   
     38. A(O   7,P   6,O   8)          115.6848         0.605011   
     39. A(O   5,P   6,O   8)          107.7335         0.560014   
     40. A(P   6,O   8,H  15)          111.9255         0.417301   
     41. A(P   6,O   9,H  16)          108.7914         0.414317   
     42. D(C   4,C   2,C   1,H  10)   -167.6501         0.011538   
     43. D(H  11,C   2,C   1,H  10)     70.0468         0.011538   
     44. D(O   3,C   2,C   1,O   0)    137.1487         0.011538   
     45. D(O   3,C   2,C   1,H  10)    -46.5841         0.011538   
     46. D(H  11,C   2,C   1,O   0)   -106.2204         0.011538   
     47. D(C   4,C   2,C   1,O   0)     16.0827         0.011538   
     48. D(H  12,O   3,C   2,H  11)     76.9929         0.018738   
     49. D(H  12,O   3,C   2,C   4)    -43.9235         0.018738   
     50. D(H  12,O   3,C   2,C   1)   -165.5273         0.018738   
     51. D(H  13,C   4,C   2,O   3)    179.0403         0.011500   
     52. D(H  13,C   4,C   2,C   1)    -60.4394         0.011500   
     53. D(O   5,C   4,C   2,H  11)    -60.0642         0.011500   
     54. D(O   5,C   4,C   2,O   3)     58.5494         0.011500   
     55. D(H  13,C   4,C   2,H  11)     60.4267         0.011500   
     56. D(O   5,C   4,C   2,C   1)    179.0697         0.011500   
     57. D(H  14,C   4,C   2,H  11)   -178.5927         0.011500   
     58. D(H  14,C   4,C   2,O   3)    -59.9791         0.011500   
     59. D(H  14,C   4,C   2,C   1)     60.5412         0.011500   
     60. D(P   6,O   5,C   4,H  14)    -65.5073         0.019494   
     61. D(P   6,O   5,C   4,H  13)     53.5551         0.019494   
     62. D(P   6,O   5,C   4,C   2)    174.5994         0.019494   
     63. D(O   9,P   6,O   5,C   4)     54.3563         0.013285   
     64. D(O   8,P   6,O   5,C   4)    -51.6859         0.013285   
     65. D(O   7,P   6,O   5,C   4)    176.1400         0.013285   
     66. D(H  15,O   8,P   6,O   9)    -27.9263         0.013855   
     67. D(H  15,O   8,P   6,O   7)   -146.2330         0.013855   
     68. D(H  15,O   8,P   6,O   5)     80.9901         0.013855   
     69. D(H  16,O   9,P   6,O   8)   -132.2186         0.013247   
     70. D(H  16,O   9,P   6,O   7)     -9.8506         0.013247   
     71. D(H  16,O   9,P   6,O   5)    116.2810         0.013247   
    -----------------------------------------------------------------

Number of atoms                         .... 17
Number of degrees of freedom            .... 71

         *************************************************************
         *                GEOMETRY OPTIMIZATION CYCLE   1            *
         *************************************************************
---------------------------------
CARTESIAN COORDINATES (ANGSTROEM)
---------------------------------
  O    -2.471700    1.545900    1.262700
  C    -2.705700    0.451600    0.755100
  C    -1.712000   -0.326900   -0.083500
  O    -1.763800   -1.703100    0.293000
  C    -0.298500    0.212400    0.112000
  O     0.588800   -0.568100   -0.679800
  P     2.126800   -0.144600   -0.771700
  O     3.026300   -1.046300   -1.541400
  O     2.182700    1.394300   -1.175200
  O     2.608100   -0.059000    0.750000
  H    -3.707900   -0.003400    0.837500
  H    -2.015600   -0.264800   -1.133400
  H    -0.964600   -2.115000   -0.090300
  H    -0.239100    1.263200   -0.188900
  H     0.005200    0.123000    1.160700
  H     2.043300    1.976600   -0.407700
  H     3.297600   -0.736000    0.900900

----------------------------
CARTESIAN COORDINATES (A.U.)
----------------------------
  NO LB    ZA    FRAG    MASS        X           Y           Z
   0 O   8.0000    0    15.999   -4.670836    2.921328    2.386157
   1 C   6.0000    0    12.011   -5.113032    0.853400    1.426932
   2 C   6.0000    0    12.011   -3.235211   -0.617751   -0.157792
   3 O   8.0000    0    15.999   -3.333099   -3.218393    0.553690
   4 C   6.0000    0    12.011   -0.564083    0.401378    0.211649
   5 O   8.0000    0    15.999    1.112671   -1.073553   -1.284636
   6 P  15.0000    0    30.974    4.019070   -0.273254   -1.458302
   7 O   8.0000    0    15.999    5.718878   -1.977220   -2.912824
   8 O   8.0000    0    15.999    4.124705    2.634845   -2.220806
   9 O   8.0000    0    15.999    4.928595   -0.111494    1.417295
  10 H   1.0000    0     1.008   -7.006916   -0.006425    1.582646
  11 H   1.0000    0     1.008   -3.808932   -0.500399   -2.141816
  12 H   1.0000    0     1.008   -1.822830   -3.996771   -0.170642
  13 H   1.0000    0     1.008   -0.451834    2.387102   -0.356969
  14 H   1.0000    0     1.008    0.009827    0.232436    2.193405
  15 H   1.0000    0     1.008    3.861277    3.735233   -0.770441
  16 H   1.0000    0     1.008    6.231561   -1.390838    1.702454

      -----------------------------------------------------------      
     |                   =====================                   |     
     |                           x T B                           |     
     |                   =====================                   |     
     |                         S. Grimme                         |     
     |          Mulliken Center for Theoretical Chemistry        |     
     |                    University of Bonn                     |     
      -----------------------------------------------------------      

   * xtb version 6.5.1 (579679a) compiled by 'ehlert@majestix' on 2022-07-11

   xtb is free software: you can redistribute it and/or modify it under
   the terms of the GNU Lesser General Public License as published by
   the Free Software Foundation, either version 3 of the License, or
   (at your option) any later version.
   
   xtb is distributed in the hope that it will be useful,
   but WITHOUT ANY WARRANTY; without even the implied warranty of
   MERCHANTABILITY or FITNESS FOR A PARTICULAR PURPOSE.  See the
   GNU Lesser General Public License for more details.
   
   Cite this work as:
   * C. Bannwarth, E. Caldeweyher, S. Ehlert, A. Hansen, P. Pracht,
     J. Seibert, S. Spicher, S. Grimme, WIREs Comput. Mol. Sci., 2020, 11,
     e01493. DOI: 10.1002/wcms.1493
   
   for GFN2-xTB:
   * C. Bannwarth, S. Ehlert and S. Grimme., J. Chem. Theory Comput., 2019,
     15, 1652-1671. DOI: 10.1021/acs.jctc.8b01176
   for GFN1-xTB:
   * S. Grimme, C. Bannwarth, P. Shushkov, J. Chem. Theory Comput., 2017,
     13, 1989-2009. DOI: 10.1021/acs.jctc.7b00118
   for GFN0-xTB:
   * P. Pracht, E. Caldeweyher, S. Ehlert, S. Grimme, ChemRxiv, 2019, preprint.
     DOI: 10.26434/chemrxiv.8326202.v1
   for GFN-FF:
   * S. Spicher and S. Grimme, Angew. Chem. Int. Ed., 2020, 59, 15665-15673.
     DOI: 10.1002/anie.202004239
   
   for ALPB and GBSA implicit solvation:
   * S. Ehlert, M. Stahn, S. Spicher, S. Grimme, J. Chem. Theory Comput.,
     2021, 17, 4250-4261. DOI: 10.1021/acs.jctc.1c00471
   
   for DFT-D4:
   * E. Caldeweyher, C. Bannwarth and S. Grimme, J. Chem. Phys., 2017,
     147, 034112. DOI: 10.1063/1.4993215
   * E. Caldeweyher, S. Ehlert, A. Hansen, H. Neugebauer, S. Spicher,
     C. Bannwarth and S. Grimme, J. Chem. Phys., 2019, 150, 154122.
     DOI: 10.1063/1.5090222
   * E. Caldeweyher, J.-M. Mewes, S. Ehlert and S. Grimme, Phys. Chem. Chem. Phys.
     2020, 22, 8499-8512. DOI: 10.1039/D0CP00502A
   
   for sTDA-xTB:
   * S. Grimme and C. Bannwarth, J. Chem. Phys., 2016, 145, 054103.
     DOI: 10.1063/1.4959605
   
   in the mass-spec context:
   * V. Asgeirsson, C. Bauer and S. Grimme, Chem. Sci., 2017, 8, 4879.
     DOI: 10.1039/c7sc00601b
   * J. Koopman and S. Grimme, ACS Omega 2019, 4, 12, 15120-15133.
     DOI: 10.1021/acsomega.9b02011
   
   for metadynamics refer to:
   * S. Grimme, J. Chem. Theory Comput., 2019, 155, 2847-2862
     DOI: 10.1021/acs.jctc.9b00143
   
   for SPH calculations refer to:
   * S. Spicher and S. Grimme, J. Chem. Theory Comput., 2021, 17, 1701-1714
     DOI: 10.1021/acs.jctc.0c01306
   
   with help from (in alphabetical order)
   P. Atkinson, C. Bannwarth, F. Bohle, G. Brandenburg, E. Caldeweyher
   M. Checinski, S. Dohm, S. Ehlert, S. Ehrlich, I. Gerasimov, C. Hölzer
   A. Katbashev, J. Koopman, C. Lavigne, S. Lehtola, F. März, M. Müller,
   F. Musil, H. Neugebauer, J. Pisarek, C. Plett, P. Pracht, F. Pultar,
   J. Seibert, P. Shushkov, S. Spicher, M. Stahn, M. Steiner, T. Strunk,
   J. Stückrath, T. Rose, and J. Unsleber
   
 * started run on 2023/12/04 at 13:54:04.595     

           -------------------------------------------------
          |                Calculation Setup                |
           -------------------------------------------------

          program call               : otool_xtb /tmp/C00118_XTB.xyz --grad -c 0 -u 0 -P 1 --namespace /tmp/C00118 --input /tmp/C00118_XTB.input.tmp --acc 1.000000
          calculation namespace      : /tmp/C00118
          coordinate file            : /tmp/C00118_XTB.xyz
          omp threads                :                     1

   ID    Z sym.   atoms
    1    8 O      1, 4, 6, 8-10
    2    6 C      2, 3, 5
    3   15 P      7
    4    1 H      11-17

           -------------------------------------------------
          |                 G F N 2 - x T B                 |
           -------------------------------------------------

        Reference                      10.1021/acs.jctc.8b01176
      * Hamiltonian:
        H0-scaling (s, p, d)           1.850000    2.230000    2.230000
        zeta-weighting                 0.500000
      * Dispersion:
        s8                             2.700000
        a1                             0.520000
        a2                             5.000000
        s9                             5.000000
      * Repulsion:
        kExp                           1.500000    1.000000
        rExp                           1.000000
      * Coulomb:
        alpha                          2.000000
        third order                    shell-resolved
        anisotropic                    true
        a3                             3.000000
        a5                             4.000000
        cn-shift                       1.200000
        cn-exp                         4.000000
        max-rad                        5.000000


          ...................................................
          :                      SETUP                      :
          :.................................................:
          :  # basis functions                  53          :
          :  # atomic orbitals                  52          :
          :  # shells                           28          :
          :  # electrons                        60          :
          :  max. iterations                   250          :
          :  Hamiltonian                  GFN2-xTB          :
          :  restarted?                      false          :
          :  GBSA solvation                  false          :
          :  PC potential                    false          :
          :  electronic temp.          300.0000000     K    :
          :  accuracy                    1.0000000          :
          :  -> integral cutoff          0.2500000E+02      :
          :  -> integral neglect         0.1000000E-07      :
          :  -> SCF convergence          0.1000000E-05 Eh   :
          :  -> wf. convergence          0.1000000E-03 e    :
          :  Broyden damping             0.4000000          :
          ...................................................

 iter      E             dE          RMSdq      gap      omega  full diag
   1    -37.1607862 -0.371608E+02  0.720E+00    4.03       0.0  T
   2    -37.2257031 -0.649169E-01  0.388E+00    3.25       1.0  T
   3    -37.2298206 -0.411750E-02  0.168E+00    3.70       1.0  T
   4    -37.2447186 -0.148980E-01  0.711E-01    3.35       1.0  T
   5    -37.2454547 -0.736032E-03  0.261E-01    3.46       1.0  T
   6    -37.2456295 -0.174811E-03  0.913E-02    3.42       1.0  T
   7    -37.2456367 -0.724809E-05  0.301E-02    3.42       1.0  T
   8    -37.2456392 -0.245736E-05  0.121E-02    3.42       2.0  T
   9    -37.2456394 -0.185898E-06  0.395E-03    3.42       6.1  T
  10    -37.2456394 -0.678426E-07  0.129E-03    3.42      18.8  T
  11    -37.2456394 -0.215687E-08  0.460E-04    3.42      52.8  T
  12    -37.2456394 -0.345977E-09  0.281E-04    3.42      86.4  T

   *** convergence criteria satisfied after 12 iterations ***

         #    Occupation            Energy/Eh            Energy/eV
      -------------------------------------------------------------
         1        2.0000           -0.7632167             -20.7682
       ...           ...                  ...                  ...
        24        2.0000           -0.5044027             -13.7255
        25        2.0000           -0.5000325             -13.6066
        26        2.0000           -0.4765077             -12.9664
        27        2.0000           -0.4543047             -12.3623
        28        2.0000           -0.4472019             -12.1690
        29        2.0000           -0.4442428             -12.0885
        30        2.0000           -0.4352802             -11.8446 (HOMO)
        31                         -0.3095312              -8.4228 (LUMO)
        32                         -0.1215335              -3.3071
        33                         -0.0625598              -1.7023
        34                         -0.0302107              -0.8221
        35                          0.0091889               0.2500
       ...                                ...                  ...
        52                          1.1614700              31.6052
      -------------------------------------------------------------
                  HL-Gap            0.1257490 Eh            3.4218 eV
             Fermi-level           -0.3724057 Eh          -10.1337 eV

 SCC (total)                   0 d,  0 h,  0 min,  0.016 sec
 SCC setup                      ...        0 min,  0.000 sec (  0.850%)
 Dispersion                     ...        0 min,  0.000 sec (  0.607%)
 classical contributions        ...        0 min,  0.000 sec (  0.137%)
 integral evaluation            ...        0 min,  0.002 sec ( 15.078%)
 iterations                     ...        0 min,  0.007 sec ( 41.533%)
 molecular gradient             ...        0 min,  0.007 sec ( 41.157%)
 printout                       ...        0 min,  0.000 sec (  0.556%)

         :::::::::::::::::::::::::::::::::::::::::::::::::::::
         ::                     SUMMARY                     ::
         :::::::::::::::::::::::::::::::::::::::::::::::::::::
         :: total energy             -37.012173881996 Eh    ::
         :: gradient norm              0.102248606706 Eh/a0 ::
         :: HOMO-LUMO gap              3.421804349727 eV    ::
         ::.................................................::
         :: SCC energy               -37.245639425674 Eh    ::
         :: -> isotropic ES            0.152919645113 Eh    ::
         :: -> anisotropic ES         -0.004547082108 Eh    ::
         :: -> anisotropic XC          0.000884176826 Eh    ::
         :: -> dispersion             -0.012626807595 Eh    ::
         :: repulsion energy           0.233429878857 Eh    ::
         :: add. restraining           0.000000000000 Eh    ::
         :: total charge              -0.000000000000 e     ::
         :::::::::::::::::::::::::::::::::::::::::::::::::::::


Property printout bound to 'properties.out'

           -------------------------------------------------
          | TOTAL ENERGY              -37.012173881996 Eh   |
          | GRADIENT NORM               0.102248606706 Eh/α |
          | HOMO-LUMO GAP               3.421804349727 eV   |
           -------------------------------------------------

------------------------------------------------------------------------
 * finished run on 2023/12/04 at 13:54:04.619     
------------------------------------------------------------------------
 total:
 * wall-time:     0 d,  0 h,  0 min,  0.024 sec
 *  cpu-time:     0 d,  0 h,  0 min,  0.024 sec
 * ratio c/w:     0.984 speedup
 SCF:
 * wall-time:     0 d,  0 h,  0 min,  0.016 sec
 *  cpu-time:     0 d,  0 h,  0 min,  0.016 sec
 * ratio c/w:     0.994 speedup


-------------------------   --------------------
FINAL SINGLE POINT ENERGY       -37.012173882000
-------------------------   --------------------

------------------------------------------------------------------------------
                         ORCA GEOMETRY RELAXATION STEP
------------------------------------------------------------------------------

Reading the OPT-File                    .... done
Getting information on internals        .... done
Copying old internal coords+grads       .... done
Making the new internal coordinates     .... (new redundants).... done
Validating the new internal coordinates .... (new redundants).... done
Calculating the B-matrix                .... done
Calculating the G,G- and P matrices     .... done
Transforming gradient to internals      .... done
Projecting the internal gradient        .... done
Number of atoms                         ....  17
Number of internal coordinates          ....  71
Current Energy                          ....   -37.012173882 Eh
Current gradient norm                   ....     0.102248607 Eh/bohr
Maximum allowed component of the step   ....  0.300
Current trust radius                    ....  0.300
Evaluating the initial hessian          ....  (Almloef) done
Projecting the Hessian                  .... done
Forming the augmented Hessian           .... done
Diagonalizing the augmented Hessian     .... done
Last element of RFO vector              ....  0.978570652
Lowest eigenvalues of augmented Hessian:
 -0.008330992  0.011500004  0.011586815  0.012210007  0.013248661
Length of the computed step             ....  0.210420513
The final length of the internal step   ....  0.210420513
Converting the step to cartesian space:
 Initial RMS(Int)=    0.0249723205
Transforming coordinates:
 Iter   0:  RMS(Cart)=    0.0346046145 RMS(Int)=    0.0248734891
 Iter   1:  RMS(Cart)=    0.0012191094 RMS(Int)=    0.0008600366
 Iter   2:  RMS(Cart)=    0.0000690974 RMS(Int)=    0.0000570276
 Iter   3:  RMS(Cart)=    0.0000057085 RMS(Int)=    0.0000046113
 Iter   4:  RMS(Cart)=    0.0000004081 RMS(Int)=    0.0000003481
 Iter   5:  RMS(Cart)=    0.0000000354 RMS(Int)=    0.0000000292
done
Storing new coordinates                 .... done

                                .--------------------.
          ----------------------|Geometry convergence|-------------------------
          Item                value                   Tolerance       Converged
          ---------------------------------------------------------------------
          RMS gradient        0.0087689153            0.0001000000      NO
          MAX gradient        0.0467559040            0.0003000000      NO
          RMS step            0.0249723205            0.0020000000      NO
          MAX step            0.0945096462            0.0040000000      NO
          ........................................................
          Max(Bonds)      0.0243      Max(Angles)    2.04
          Max(Dihed)        5.42      Max(Improp)    0.00
          ---------------------------------------------------------------------

The optimization has not yet converged - more geometry cycles are needed


    ---------------------------------------------------------------------------
                         Redundant Internal Coordinates
                            (Angstroem and degrees)

        Definition                    Value    dE/dq     Step     New-Value
    ----------------------------------------------------------------------------
     1. B(C   1,O   0)                1.2288  0.046756 -0.0243    1.2045   
     2. B(C   2,C   1)                1.5155  0.004491 -0.0059    1.5096   
     3. B(O   3,C   2)                1.4277  0.009365 -0.0100    1.4177   
     4. B(C   4,C   2)                1.5255 -0.000551  0.0008    1.5262   
     5. B(O   5,C   4)                1.4225 -0.000720  0.0008    1.4232   
     6. B(P   6,O   5)                1.5979  0.001606 -0.0010    1.5969   
     7. B(O   7,P   6)                1.4882  0.040787 -0.0164    1.4718   
     8. B(O   8,P   6)                1.5919  0.000139 -0.0001    1.5918   
     9. B(O   9,P   6)                1.5983 -0.010082  0.0060    1.6043   
    10. B(H  10,C   1)                1.1037  0.003141 -0.0047    1.0990   
    11. B(H  11,C   2)                1.0947 -0.004663  0.0068    1.1015   
    12. B(H  12,O   3)                0.9774  0.009102 -0.0097    0.9677   
    13. B(H  13,C   4)                1.0946  0.000491 -0.0007    1.0939   
    14. B(H  14,C   4)                1.0954  0.000265 -0.0004    1.0951   
    15. B(H  15,O   8)                0.9734  0.013114 -0.0138    0.9596   
    16. B(H  16,O   9)                0.9780  0.018723 -0.0200    0.9580   
    17. A(O   0,C   1,H  10)          120.61 -0.003594    0.66    121.27   
    18. A(O   0,C   1,C   2)          124.14  0.000987   -0.02    124.12   
    19. A(C   2,C   1,H  10)          115.15  0.002492   -0.29    114.86   
    20. A(C   1,C   2,C   4)          110.80 -0.001649    0.18    110.98   
    21. A(C   1,C   2,O   3)          108.99  0.003204   -0.47    108.52   
    22. A(C   1,C   2,H  11)          108.65  0.000874   -0.68    107.97   
    23. A(O   3,C   2,H  11)          107.31 -0.001645    0.65    107.96   
    24. A(C   4,C   2,H  11)          111.09  0.002441   -0.63    110.46   
    25. A(O   3,C   2,C   4)          109.91 -0.003139    0.95    110.86   
    26. A(C   2,O   3,H  12)          105.85 -0.002827    0.45    106.30   
    27. A(O   5,C   4,H  13)          109.87 -0.003078    0.63    110.50   
    28. A(H  13,C   4,H  14)          109.05 -0.000474    0.17    109.22   
    29. A(C   2,C   4,O   5)          108.22  0.004453   -0.69    107.53   
    30. A(O   5,C   4,H  14)          108.37 -0.003489    0.76    109.13   
    31. A(C   2,C   4,H  13)          110.76  0.001003   -0.39    110.37   
    32. A(C   2,C   4,H  14)          110.53  0.001466   -0.45    110.08   
    33. A(C   4,O   5,P   6)          119.14 -0.002152    0.26    119.40   
    34. A(O   5,P   6,O   7)          116.80  0.009599   -1.79    115.01   
    35. A(O   8,P   6,O   9)          100.31 -0.006576    1.47    101.78   
    36. A(O   7,P   6,O   9)          110.05 -0.010552    2.04    112.10   
    37. A(O   5,P   6,O   9)          104.44  0.001351    0.07    104.50   
    38. A(O   7,P   6,O   8)          115.68 -0.001572    0.03    115.71   
    39. A(O   5,P   6,O   8)          107.73  0.005276   -1.25    106.48   
    40. A(P   6,O   8,H  15)          111.93 -0.001339    0.18    112.11   
    41. A(P   6,O   9,H  16)          108.79  0.001559   -0.21    108.58   
    42. D(C   4,C   2,C   1,H  10)   -167.65  0.000059    4.29   -163.36   
    43. D(H  11,C   2,C   1,H  10)     70.05 -0.002508    5.42     75.46   
    44. D(O   3,C   2,C   1,O   0)    137.15 -0.000626   -0.88    136.27   
    45. D(O   3,C   2,C   1,H  10)    -46.58 -0.002794    5.28    -41.30   
    46. D(H  11,C   2,C   1,O   0)   -106.22 -0.000341   -0.75   -106.97   
    47. D(C   4,C   2,C   1,O   0)     16.08  0.002227   -1.87     14.21   
    48. D(H  12,O   3,C   2,H  11)     76.99 -0.000081   -0.73     76.26   
    49. D(H  12,O   3,C   2,C   4)    -43.92 -0.000215   -0.91    -44.83   
    50. D(H  12,O   3,C   2,C   1)   -165.53  0.001747   -1.43   -166.96   
    51. D(H  13,C   4,C   2,O   3)    179.04 -0.001589    0.40    179.44   
    52. D(H  13,C   4,C   2,C   1)    -60.44 -0.000705    0.56    -59.88   
    53. D(O   5,C   4,C   2,H  11)    -60.06  0.001282   -0.71    -60.78   
    54. D(O   5,C   4,C   2,O   3)     58.55 -0.001236    0.30     58.85   
    55. D(H  13,C   4,C   2,H  11)     60.43  0.000929   -0.61     59.82   
    56. D(O   5,C   4,C   2,C   1)    179.07 -0.000351    0.45    179.52   
    57. D(H  14,C   4,C   2,H  11)   -178.59  0.001977   -0.96   -179.55   
    58. D(H  14,C   4,C   2,O   3)    -59.98 -0.000541    0.05    -59.93   
    59. D(H  14,C   4,C   2,C   1)     60.54  0.000343    0.21     60.75   
    60. D(P   6,O   5,C   4,H  14)    -65.51  0.001687    0.66    -64.85   
    61. D(P   6,O   5,C   4,H  13)     53.56 -0.002761    1.68     55.24   
    62. D(P   6,O   5,C   4,C   2)    174.60 -0.000628    1.16    175.76   
    63. D(O   9,P   6,O   5,C   4)     54.36  0.000374    0.40     54.76   
    64. D(O   8,P   6,O   5,C   4)    -51.69  0.005224   -0.81    -52.49   
    65. D(O   7,P   6,O   5,C   4)    176.14 -0.006187    1.96    178.10   
    66. D(H  15,O   8,P   6,O   9)    -27.93 -0.006363    1.90    -26.03   
    67. D(H  15,O   8,P   6,O   7)   -146.23  0.011304   -1.53   -147.76   
    68. D(H  15,O   8,P   6,O   5)     80.99 -0.005928    2.18     83.17   
    69. D(H  16,O   9,P   6,O   8)   -132.22  0.004737   -1.13   -133.34   
    70. D(H  16,O   9,P   6,O   7)     -9.85 -0.005391    0.63     -9.22   
    71. D(H  16,O   9,P   6,O   5)    116.28  0.000959   -0.31    115.97   
    ----------------------------------------------------------------------------

         *************************************************************
         *                GEOMETRY OPTIMIZATION CYCLE   2            *
         *************************************************************
---------------------------------
CARTESIAN COORDINATES (ANGSTROEM)
---------------------------------
  O    -2.484712    1.517068    1.242146
  C    -2.707805    0.449645    0.730555
  C    -1.699829   -0.323067   -0.085401
  O    -1.760649   -1.686703    0.297614
  C    -0.293233    0.235052    0.112930
  O     0.594332   -0.549522   -0.675897
  P     2.136806   -0.144276   -0.757872
  O     2.974769   -1.046690   -1.563890
  O     2.178045    1.391082   -1.176043
  O     2.617457   -0.080016    0.771420
  H    -3.674019   -0.055834    0.867308
  H    -1.995447   -0.254258   -1.144246
  H    -0.976649   -2.110092   -0.079881
  H    -0.253001    1.284207   -0.194210
  H    -0.002451    0.156393    1.165738
  H     2.065753    1.973887   -0.421964
  H     3.280534   -0.757077    0.911693

----------------------------
CARTESIAN COORDINATES (A.U.)
----------------------------
  NO LB    ZA    FRAG    MASS        X           Y           Z
   0 O   8.0000    0    15.999   -4.695426    2.866844    2.347315
   1 C   6.0000    0    12.011   -5.117010    0.849706    1.380548
   2 C   6.0000    0    12.011   -3.212210   -0.610507   -0.161384
   3 O   8.0000    0    15.999   -3.327144   -3.187407    0.562409
   4 C   6.0000    0    12.011   -0.554131    0.444183    0.213406
   5 O   8.0000    0    15.999    1.123124   -1.038447   -1.277260
   6 P  15.0000    0    30.974    4.037979   -0.272643   -1.432171
   7 O   8.0000    0    15.999    5.621498   -1.977957   -2.955325
   8 O   8.0000    0    15.999    4.115908    2.628764   -2.222399
   9 O   8.0000    0    15.999    4.946277   -0.151208    1.457773
  10 H   1.0000    0     1.008   -6.942889   -0.105511    1.638974
  11 H   1.0000    0     1.008   -3.770848   -0.480478   -2.162311
  12 H   1.0000    0     1.008   -1.845598   -3.987495   -0.150953
  13 H   1.0000    0     1.008   -0.478103    2.426800   -0.367004
  14 H   1.0000    0     1.008   -0.004632    0.295539    2.202926
  15 H   1.0000    0     1.008    3.903707    3.730107   -0.797397
  16 H   1.0000    0     1.008    6.199311   -1.430668    1.722850

      -----------------------------------------------------------      
     |                   =====================                   |     
     |                           x T B                           |     
     |                   =====================                   |     
     |                         S. Grimme                         |     
     |          Mulliken Center for Theoretical Chemistry        |     
     |                    University of Bonn                     |     
      -----------------------------------------------------------      

   * xtb version 6.5.1 (579679a) compiled by 'ehlert@majestix' on 2022-07-11

   xtb is free software: you can redistribute it and/or modify it under
   the terms of the GNU Lesser General Public License as published by
   the Free Software Foundation, either version 3 of the License, or
   (at your option) any later version.
   
   xtb is distributed in the hope that it will be useful,
   but WITHOUT ANY WARRANTY; without even the implied warranty of
   MERCHANTABILITY or FITNESS FOR A PARTICULAR PURPOSE.  See the
   GNU Lesser General Public License for more details.
   
   Cite this work as:
   * C. Bannwarth, E. Caldeweyher, S. Ehlert, A. Hansen, P. Pracht,
     J. Seibert, S. Spicher, S. Grimme, WIREs Comput. Mol. Sci., 2020, 11,
     e01493. DOI: 10.1002/wcms.1493
   
   for GFN2-xTB:
   * C. Bannwarth, S. Ehlert and S. Grimme., J. Chem. Theory Comput., 2019,
     15, 1652-1671. DOI: 10.1021/acs.jctc.8b01176
   for GFN1-xTB:
   * S. Grimme, C. Bannwarth, P. Shushkov, J. Chem. Theory Comput., 2017,
     13, 1989-2009. DOI: 10.1021/acs.jctc.7b00118
   for GFN0-xTB:
   * P. Pracht, E. Caldeweyher, S. Ehlert, S. Grimme, ChemRxiv, 2019, preprint.
     DOI: 10.26434/chemrxiv.8326202.v1
   for GFN-FF:
   * S. Spicher and S. Grimme, Angew. Chem. Int. Ed., 2020, 59, 15665-15673.
     DOI: 10.1002/anie.202004239
   
   for ALPB and GBSA implicit solvation:
   * S. Ehlert, M. Stahn, S. Spicher, S. Grimme, J. Chem. Theory Comput.,
     2021, 17, 4250-4261. DOI: 10.1021/acs.jctc.1c00471
   
   for DFT-D4:
   * E. Caldeweyher, C. Bannwarth and S. Grimme, J. Chem. Phys., 2017,
     147, 034112. DOI: 10.1063/1.4993215
   * E. Caldeweyher, S. Ehlert, A. Hansen, H. Neugebauer, S. Spicher,
     C. Bannwarth and S. Grimme, J. Chem. Phys., 2019, 150, 154122.
     DOI: 10.1063/1.5090222
   * E. Caldeweyher, J.-M. Mewes, S. Ehlert and S. Grimme, Phys. Chem. Chem. Phys.
     2020, 22, 8499-8512. DOI: 10.1039/D0CP00502A
   
   for sTDA-xTB:
   * S. Grimme and C. Bannwarth, J. Chem. Phys., 2016, 145, 054103.
     DOI: 10.1063/1.4959605
   
   in the mass-spec context:
   * V. Asgeirsson, C. Bauer and S. Grimme, Chem. Sci., 2017, 8, 4879.
     DOI: 10.1039/c7sc00601b
   * J. Koopman and S. Grimme, ACS Omega 2019, 4, 12, 15120-15133.
     DOI: 10.1021/acsomega.9b02011
   
   for metadynamics refer to:
   * S. Grimme, J. Chem. Theory Comput., 2019, 155, 2847-2862
     DOI: 10.1021/acs.jctc.9b00143
   
   for SPH calculations refer to:
   * S. Spicher and S. Grimme, J. Chem. Theory Comput., 2021, 17, 1701-1714
     DOI: 10.1021/acs.jctc.0c01306
   
   with help from (in alphabetical order)
   P. Atkinson, C. Bannwarth, F. Bohle, G. Brandenburg, E. Caldeweyher
   M. Checinski, S. Dohm, S. Ehlert, S. Ehrlich, I. Gerasimov, C. Hölzer
   A. Katbashev, J. Koopman, C. Lavigne, S. Lehtola, F. März, M. Müller,
   F. Musil, H. Neugebauer, J. Pisarek, C. Plett, P. Pracht, F. Pultar,
   J. Seibert, P. Shushkov, S. Spicher, M. Stahn, M. Steiner, T. Strunk,
   J. Stückrath, T. Rose, and J. Unsleber
   
 * started run on 2023/12/04 at 13:54:04.667     

           -------------------------------------------------
          |                Calculation Setup                |
           -------------------------------------------------

          program call               : otool_xtb /tmp/C00118_XTB.xyz --grad -c 0 -u 0 -P 1 --namespace /tmp/C00118 --input /tmp/C00118_XTB.input.tmp --acc 1.000000
          calculation namespace      : /tmp/C00118
          coordinate file            : /tmp/C00118_XTB.xyz
          omp threads                :                     1

   ID    Z sym.   atoms
    1    8 O      1, 4, 6, 8-10
    2    6 C      2, 3, 5
    3   15 P      7
    4    1 H      11-17

           -------------------------------------------------
          |                 G F N 2 - x T B                 |
           -------------------------------------------------

        Reference                      10.1021/acs.jctc.8b01176
      * Hamiltonian:
        H0-scaling (s, p, d)           1.850000    2.230000    2.230000
        zeta-weighting                 0.500000
      * Dispersion:
        s8                             2.700000
        a1                             0.520000
        a2                             5.000000
        s9                             5.000000
      * Repulsion:
        kExp                           1.500000    1.000000
        rExp                           1.000000
      * Coulomb:
        alpha                          2.000000
        third order                    shell-resolved
        anisotropic                    true
        a3                             3.000000
        a5                             4.000000
        cn-shift                       1.200000
        cn-exp                         4.000000
        max-rad                        5.000000

q/qsh data taken from xtbrestart
CAMM data taken from xtbrestart

          ...................................................
          :                      SETUP                      :
          :.................................................:
          :  # basis functions                  53          :
          :  # atomic orbitals                  52          :
          :  # shells                           28          :
          :  # electrons                        60          :
          :  max. iterations                   250          :
          :  Hamiltonian                  GFN2-xTB          :
          :  restarted?                       true          :
          :  GBSA solvation                  false          :
          :  PC potential                    false          :
          :  electronic temp.          300.0000000     K    :
          :  accuracy                    1.0000000          :
          :  -> integral cutoff          0.2500000E+02      :
          :  -> integral neglect         0.1000000E-07      :
          :  -> SCF convergence          0.1000000E-05 Eh   :
          :  -> wf. convergence          0.1000000E-03 e    :
          :  Broyden damping             0.4000000          :
          ...................................................

 iter      E             dE          RMSdq      gap      omega  full diag
   1    -37.2681806 -0.372682E+02  0.438E-01    3.60       0.0  T
   2    -37.2682364 -0.558591E-04  0.258E-01    3.58       1.0  T
   3    -37.2682383 -0.189000E-05  0.451E-02    3.59       1.0  T
   4    -37.2682444 -0.607879E-05  0.136E-02    3.58       1.8  T
   5    -37.2682451 -0.666197E-06  0.694E-03    3.58       3.5  T
   6    -37.2682453 -0.217753E-06  0.301E-03    3.58       8.1  T
   7    -37.2682453 -0.135300E-07  0.109E-03    3.58      22.2  T
   8    -37.2682453 -0.834653E-09  0.307E-04    3.58      78.9  T
   9    -37.2682453 -0.218790E-09  0.108E-04    3.58     223.6  T

   *** convergence criteria satisfied after 9 iterations ***

         #    Occupation            Energy/Eh            Energy/eV
      -------------------------------------------------------------
         1        2.0000           -0.7623571             -20.7448
       ...           ...                  ...                  ...
        24        2.0000           -0.5050170             -13.7422
        25        2.0000           -0.4994801             -13.5915
        26        2.0000           -0.4748496             -12.9213
        27        2.0000           -0.4552173             -12.3871
        28        2.0000           -0.4488736             -12.2145
        29        2.0000           -0.4458847             -12.1331
        30        2.0000           -0.4319922             -11.7551 (HOMO)
        31                         -0.3003818              -8.1738 (LUMO)
        32                         -0.1033745              -2.8130
        33                         -0.0551052              -1.4995
        34                         -0.0291411              -0.7930
        35                          0.0233192               0.6345
       ...                                ...                  ...
        52                          1.1859270              32.2707
      -------------------------------------------------------------
                  HL-Gap            0.1316104 Eh            3.5813 eV
             Fermi-level           -0.3661870 Eh           -9.9645 eV

 SCC (total)                   0 d,  0 h,  0 min,  0.015 sec
 SCC setup                      ...        0 min,  0.000 sec (  0.868%)
 Dispersion                     ...        0 min,  0.000 sec (  0.525%)
 classical contributions        ...        0 min,  0.000 sec (  0.117%)
 integral evaluation            ...        0 min,  0.003 sec ( 19.663%)
 iterations                     ...        0 min,  0.005 sec ( 34.691%)
 molecular gradient             ...        0 min,  0.007 sec ( 43.462%)
 printout                       ...        0 min,  0.000 sec (  0.576%)

         :::::::::::::::::::::::::::::::::::::::::::::::::::::
         ::                     SUMMARY                     ::
         :::::::::::::::::::::::::::::::::::::::::::::::::::::
         :: total energy             -37.017869862485 Eh    ::
         :: gradient norm              0.049770083530 Eh/a0 ::
         :: HOMO-LUMO gap              3.581301844207 eV    ::
         ::.................................................::
         :: SCC energy               -37.268245294958 Eh    ::
         :: -> isotropic ES            0.150593495986 Eh    ::
         :: -> anisotropic ES         -0.004547929241 Eh    ::
         :: -> anisotropic XC          0.000374420855 Eh    ::
         :: -> dispersion             -0.012669119985 Eh    ::
         :: repulsion energy           0.250338919955 Eh    ::
         :: add. restraining           0.000000000000 Eh    ::
         :: total charge               0.000000000000 e     ::
         :::::::::::::::::::::::::::::::::::::::::::::::::::::


Property printout bound to 'properties.out'

           -------------------------------------------------
          | TOTAL ENERGY              -37.017869862485 Eh   |
          | GRADIENT NORM               0.049770083530 Eh/α |
          | HOMO-LUMO GAP               3.581301844207 eV   |
           -------------------------------------------------

------------------------------------------------------------------------
 * finished run on 2023/12/04 at 13:54:04.692     
------------------------------------------------------------------------
 total:
 * wall-time:     0 d,  0 h,  0 min,  0.025 sec
 *  cpu-time:     0 d,  0 h,  0 min,  0.024 sec
 * ratio c/w:     0.979 speedup
 SCF:
 * wall-time:     0 d,  0 h,  0 min,  0.016 sec
 *  cpu-time:     0 d,  0 h,  0 min,  0.016 sec
 * ratio c/w:     1.030 speedup


-------------------------   --------------------
FINAL SINGLE POINT ENERGY       -37.017869862490
-------------------------   --------------------

------------------------------------------------------------------------------
                         ORCA GEOMETRY RELAXATION STEP
------------------------------------------------------------------------------

Reading the OPT-File                    .... done
Getting information on internals        .... done
Copying old internal coords+grads       .... done
Making the new internal coordinates     .... (new redundants).... done
Validating the new internal coordinates .... (new redundants).... done
Calculating the B-matrix                .... done
Calculating the G,G- and P matrices     .... done
Transforming gradient to internals      .... done
Projecting the internal gradient        .... done
Number of atoms                         ....  17
Number of internal coordinates          ....  71
Current Energy                          ....   -37.017869862 Eh
Current gradient norm                   ....     0.049770084 Eh/bohr
Maximum allowed component of the step   ....  0.300
Current trust radius                    ....  0.300
Updating the Hessian (BFGS)             .... done
Forming the augmented Hessian           .... done
Diagonalizing the augmented Hessian     .... done
Last element of RFO vector              ....  0.953865160
Lowest eigenvalues of augmented Hessian:
 -0.004538474  0.011500024  0.011582168  0.013246712  0.013279907
Length of the computed step             ....  0.314756579
Warning: the length of the step is outside the trust region - taking restricted step instead
The input lambda is                     ....    -0.004538
   iter:   1  x=   -0.005456  g=    9.887011 f(x)=     0.009072
   iter:   2  x=   -0.005534  g=    8.486489 f(x)=     0.000665
   iter:   3  x=   -0.005535  g=    8.379772 f(x)=     0.000004
   iter:   4  x=   -0.005535  g=    8.379096 f(x)=     0.000000
   iter:   5  x=   -0.005535  g=    8.379096 f(x)=     0.000000
The output lambda is                    ....    -0.005535 (5 iterations)
The final length of the internal step   ....  0.300000000
Converting the step to cartesian space:
 Initial RMS(Int)=    0.0356034497
Transforming coordinates:
 Iter   0:  RMS(Cart)=    0.0508533164 RMS(Int)=    1.0526415083
 Iter   1:  RMS(Cart)=    0.0025773650 RMS(Int)=    0.0022739128
 Iter   2:  RMS(Cart)=    0.0002697389 RMS(Int)=    0.0002289054
 Iter   3:  RMS(Cart)=    0.0000328066 RMS(Int)=    0.0000301317
 Iter   4:  RMS(Cart)=    0.0000039519 RMS(Int)=    0.0000034559
 Iter   5:  RMS(Cart)=    0.0000005049 RMS(Int)=    0.0000004612
 Iter   6:  RMS(Cart)=    0.0000000599 RMS(Int)=    0.0000000527
done
Storing new coordinates                 .... done

                                .--------------------.
          ----------------------|Geometry convergence|-------------------------
          Item                value                   Tolerance       Converged
          ---------------------------------------------------------------------
          Energy change      -0.0056959805            0.0000050000      NO
          RMS gradient        0.0039487876            0.0001000000      NO
          MAX gradient        0.0253178812            0.0003000000      NO
          RMS step            0.0356034497            0.0020000000      NO
          MAX step            0.1524818679            0.0040000000      NO
          ........................................................
          Max(Bonds)      0.0218      Max(Angles)    2.60
          Max(Dihed)        8.74      Max(Improp)    0.00
          ---------------------------------------------------------------------

The optimization has not yet converged - more geometry cycles are needed


    ---------------------------------------------------------------------------
                         Redundant Internal Coordinates
                            (Angstroem and degrees)

        Definition                    Value    dE/dq     Step     New-Value
    ----------------------------------------------------------------------------
     1. B(C   1,O   0)                1.2045  0.010657 -0.0175    1.1870   
     2. B(C   2,C   1)                1.5096 -0.002222  0.0024    1.5120   
     3. B(O   3,C   2)                1.4177  0.004908 -0.0118    1.4060   
     4. B(C   4,C   2)                1.5262 -0.001124  0.0027    1.5289   
     5. B(O   5,C   4)                1.4232  0.000643 -0.0008    1.4225   
     6. B(P   6,O   5)                1.5969 -0.000441  0.0001    1.5970   
     7. B(O   7,P   6)                1.4718  0.025318 -0.0218    1.4500   
     8. B(O   8,P   6)                1.5918  0.000175 -0.0002    1.5916   
     9. B(O   9,P   6)                1.6043 -0.005247  0.0071    1.6114   
    10. B(H  10,C   1)                1.0990 -0.001232  0.0012    1.1002   
    11. B(H  11,C   2)                1.1015 -0.001870  0.0067    1.1082   
    12. B(H  12,O   3)                0.9677  0.001226 -0.0055    0.9621   
    13. B(H  13,C   4)                1.0939  0.000360 -0.0011    1.0929   
    14. B(H  14,C   4)                1.0951  0.000104 -0.0004    1.0947   
    15. B(H  15,O   8)                0.9596  0.001887 -0.0081    0.9516   
    16. B(H  16,O   9)                0.9580  0.002383 -0.0112    0.9468   
    17. A(O   0,C   1,H  10)          121.17 -0.002817    0.63    121.80   
    18. A(O   0,C   1,C   2)          124.02 -0.001516    0.07    124.09   
    19. A(C   2,C   1,H  10)          114.76  0.004264   -1.52    113.24   
    20. A(C   1,C   2,C   4)          110.97 -0.001284    0.30    111.27   
    21. A(C   1,C   2,O   3)          108.52  0.001938   -0.55    107.97   
    22. A(C   1,C   2,H  11)          107.96  0.000191   -0.65    107.31   
    23. A(O   3,C   2,H  11)          107.96 -0.001335    0.96    108.92   
    24. A(C   4,C   2,H  11)          110.45  0.002143   -1.14    109.31   
    25. A(O   3,C   2,C   4)          110.87 -0.001611    1.08    111.95   
    26. A(C   2,O   3,H  12)          106.30 -0.002397    0.75    107.06   
    27. A(O   5,C   4,H  13)          110.50 -0.001390    0.67    111.17   
    28. A(H  13,C   4,H  14)          109.21 -0.000345    0.21    109.42   
    29. A(C   2,C   4,O   5)          107.53  0.001768   -0.67    106.85   
    30. A(O   5,C   4,H  14)          109.13 -0.001607    0.85    109.98   
    31. A(C   2,C   4,H  13)          110.37  0.000756   -0.52    109.85   
    32. A(C   2,C   4,H  14)          110.08  0.000818   -0.52    109.57   
    33. A(C   4,O   5,P   6)          119.40 -0.002593    0.58    119.98   
    34. A(O   5,P   6,O   7)          114.99  0.006500   -2.34    112.65   
    35. A(O   8,P   6,O   9)          101.77 -0.001447    1.33    103.11   
    36. A(O   7,P   6,O   9)          112.09 -0.006674    2.60    114.69   
    37. A(O   5,P   6,O   9)          104.51  0.000674    0.01    104.52   
    38. A(O   7,P   6,O   8)          115.64 -0.001381    0.19    115.83   
    39. A(O   5,P   6,O   8)          106.46  0.001776   -1.30    105.16   
    40. A(P   6,O   8,H  15)          112.11 -0.002011    0.49    112.59   
    41. A(P   6,O   9,H  16)          108.58  0.000836   -0.25    108.33   
    42. D(C   4,C   2,C   1,H  10)   -163.36  0.001508   -2.66   -166.02   
    43. D(H  11,C   2,C   1,H  10)     75.46 -0.000474   -1.00     74.47   
    44. D(O   3,C   2,C   1,O   0)    136.26 -0.001926    8.25    144.51   
    45. D(O   3,C   2,C   1,H  10)    -41.30 -0.000031   -1.48    -42.79   
    46. D(H  11,C   2,C   1,O   0)   -106.97 -0.002369    8.74    -98.23   
    47. D(C   4,C   2,C   1,O   0)     14.21 -0.000387    7.07     21.28   
    48. D(H  12,O   3,C   2,H  11)     76.27  0.000569   -1.73     74.54   
    49. D(H  12,O   3,C   2,C   4)    -44.84 -0.000234   -1.57    -46.41   
    50. D(H  12,O   3,C   2,C   1)   -166.96  0.001106   -2.27   -169.23   
    51. D(H  13,C   4,C   2,O   3)    179.44 -0.000835    0.38    179.82   
    52. D(H  13,C   4,C   2,C   1)    -59.88 -0.000330    0.60    -59.28   
    53. D(O   5,C   4,C   2,H  11)    -60.78  0.000637   -0.87    -61.65   
    54. D(O   5,C   4,C   2,O   3)     58.84 -0.000678    0.29     59.14   
    55. D(H  13,C   4,C   2,H  11)     59.82  0.000480   -0.79     59.03   
    56. D(O   5,C   4,C   2,C   1)    179.52 -0.000173    0.51    180.04   
    57. D(H  14,C   4,C   2,H  11)   -179.55  0.001068   -1.21   -180.76   
    58. D(H  14,C   4,C   2,O   3)    -59.93 -0.000247   -0.04    -59.97   
    59. D(H  14,C   4,C   2,C   1)     60.75  0.000258    0.18     60.93   
    60. D(P   6,O   5,C   4,H  14)    -64.85  0.000629    1.35    -63.50   
    61. D(P   6,O   5,C   4,H  13)     55.24 -0.001672    2.52     57.77   
    62. D(P   6,O   5,C   4,C   2)    175.76 -0.000472    1.87    177.63   
    63. D(O   9,P   6,O   5,C   4)     54.76  0.001029   -0.02     54.74   
    64. D(O   8,P   6,O   5,C   4)    -52.47  0.001719   -1.03    -53.50   
    65. D(O   7,P   6,O   5,C   4)    178.07 -0.002910    1.86    179.93   
    66. D(H  15,O   8,P   6,O   9)    -26.02 -0.003855    2.61    -23.41   
    67. D(H  15,O   8,P   6,O   7)   -147.76  0.006137   -1.53   -149.29   
    68. D(H  15,O   8,P   6,O   5)     83.16 -0.003101    2.74     85.90   
    69. D(H  16,O   9,P   6,O   8)   -133.37  0.002634   -1.35   -134.72   
    70. D(H  16,O   9,P   6,O   7)     -9.20 -0.003459    0.89     -8.31   
    71. D(H  16,O   9,P   6,O   5)    115.97  0.001011   -0.43    115.54   
    ----------------------------------------------------------------------------

         *************************************************************
         *                GEOMETRY OPTIMIZATION CYCLE   3            *
         *************************************************************
---------------------------------
CARTESIAN COORDINATES (ANGSTROEM)
---------------------------------
  O    -2.556680    1.536998    1.150334
  C    -2.706226    0.428231    0.753738
  C    -1.681504   -0.329830   -0.059574
  O    -1.741204   -1.682353    0.319674
  C    -0.281503    0.255115    0.128249
  O     0.600822   -0.521696   -0.672654
  P     2.149689   -0.140995   -0.752827
  O     2.900454   -1.038358   -1.609404
  O     2.178169    1.394652   -1.170285
  O     2.639129   -0.110396    0.782163
  H    -3.668837   -0.097039    0.842541
  H    -1.975306   -0.241839   -1.124456
  H    -0.979014   -2.119323   -0.072544
  H    -0.273118    1.303819   -0.179132
  H     0.007917    0.182585    1.181482
  H     2.108770    1.978250   -0.421910
  H     3.278344   -0.798021    0.904603

----------------------------
CARTESIAN COORDINATES (A.U.)
----------------------------
  NO LB    ZA    FRAG    MASS        X           Y           Z
   0 O   8.0000    0    15.999   -4.831425    2.904506    2.173817
   1 C   6.0000    0    12.011   -5.114026    0.809239    1.424358
   2 C   6.0000    0    12.011   -3.177583   -0.623288   -0.112578
   3 O   8.0000    0    15.999   -3.290399   -3.179187    0.604096
   4 C   6.0000    0    12.011   -0.531964    0.482098    0.242355
   5 O   8.0000    0    15.999    1.135390   -0.985862   -1.271131
   6 P  15.0000    0    30.974    4.062323   -0.266442   -1.422637
   7 O   8.0000    0    15.999    5.481064   -1.962212   -3.041332
   8 O   8.0000    0    15.999    4.116143    2.635510   -2.211517
   9 O   8.0000    0    15.999    4.987231   -0.208617    1.478073
  10 H   1.0000    0     1.008   -6.933097   -0.183378    1.592172
  11 H   1.0000    0     1.008   -3.732788   -0.457010   -2.124914
  12 H   1.0000    0     1.008   -1.850069   -4.004941   -0.137088
  13 H   1.0000    0     1.008   -0.516119    2.463860   -0.338511
  14 H   1.0000    0     1.008    0.014961    0.345036    2.232678
  15 H   1.0000    0     1.008    3.984997    3.738350   -0.797295
  16 H   1.0000    0     1.008    6.195172   -1.508040    1.709453

      -----------------------------------------------------------      
     |                   =====================                   |     
     |                           x T B                           |     
     |                   =====================                   |     
     |                         S. Grimme                         |     
     |          Mulliken Center for Theoretical Chemistry        |     
     |                    University of Bonn                     |     
      -----------------------------------------------------------      

   * xtb version 6.5.1 (579679a) compiled by 'ehlert@majestix' on 2022-07-11

   xtb is free software: you can redistribute it and/or modify it under
   the terms of the GNU Lesser General Public License as published by
   the Free Software Foundation, either version 3 of the License, or
   (at your option) any later version.
   
   xtb is distributed in the hope that it will be useful,
   but WITHOUT ANY WARRANTY; without even the implied warranty of
   MERCHANTABILITY or FITNESS FOR A PARTICULAR PURPOSE.  See the
   GNU Lesser General Public License for more details.
   
   Cite this work as:
   * C. Bannwarth, E. Caldeweyher, S. Ehlert, A. Hansen, P. Pracht,
     J. Seibert, S. Spicher, S. Grimme, WIREs Comput. Mol. Sci., 2020, 11,
     e01493. DOI: 10.1002/wcms.1493
   
   for GFN2-xTB:
   * C. Bannwarth, S. Ehlert and S. Grimme., J. Chem. Theory Comput., 2019,
     15, 1652-1671. DOI: 10.1021/acs.jctc.8b01176
   for GFN1-xTB:
   * S. Grimme, C. Bannwarth, P. Shushkov, J. Chem. Theory Comput., 2017,
     13, 1989-2009. DOI: 10.1021/acs.jctc.7b00118
   for GFN0-xTB:
   * P. Pracht, E. Caldeweyher, S. Ehlert, S. Grimme, ChemRxiv, 2019, preprint.
     DOI: 10.26434/chemrxiv.8326202.v1
   for GFN-FF:
   * S. Spicher and S. Grimme, Angew. Chem. Int. Ed., 2020, 59, 15665-15673.
     DOI: 10.1002/anie.202004239
   
   for ALPB and GBSA implicit solvation:
   * S. Ehlert, M. Stahn, S. Spicher, S. Grimme, J. Chem. Theory Comput.,
     2021, 17, 4250-4261. DOI: 10.1021/acs.jctc.1c00471
   
   for DFT-D4:
   * E. Caldeweyher, C. Bannwarth and S. Grimme, J. Chem. Phys., 2017,
     147, 034112. DOI: 10.1063/1.4993215
   * E. Caldeweyher, S. Ehlert, A. Hansen, H. Neugebauer, S. Spicher,
     C. Bannwarth and S. Grimme, J. Chem. Phys., 2019, 150, 154122.
     DOI: 10.1063/1.5090222
   * E. Caldeweyher, J.-M. Mewes, S. Ehlert and S. Grimme, Phys. Chem. Chem. Phys.
     2020, 22, 8499-8512. DOI: 10.1039/D0CP00502A
   
   for sTDA-xTB:
   * S. Grimme and C. Bannwarth, J. Chem. Phys., 2016, 145, 054103.
     DOI: 10.1063/1.4959605
   
   in the mass-spec context:
   * V. Asgeirsson, C. Bauer and S. Grimme, Chem. Sci., 2017, 8, 4879.
     DOI: 10.1039/c7sc00601b
   * J. Koopman and S. Grimme, ACS Omega 2019, 4, 12, 15120-15133.
     DOI: 10.1021/acsomega.9b02011
   
   for metadynamics refer to:
   * S. Grimme, J. Chem. Theory Comput., 2019, 155, 2847-2862
     DOI: 10.1021/acs.jctc.9b00143
   
   for SPH calculations refer to:
   * S. Spicher and S. Grimme, J. Chem. Theory Comput., 2021, 17, 1701-1714
     DOI: 10.1021/acs.jctc.0c01306
   
   with help from (in alphabetical order)
   P. Atkinson, C. Bannwarth, F. Bohle, G. Brandenburg, E. Caldeweyher
   M. Checinski, S. Dohm, S. Ehlert, S. Ehrlich, I. Gerasimov, C. Hölzer
   A. Katbashev, J. Koopman, C. Lavigne, S. Lehtola, F. März, M. Müller,
   F. Musil, H. Neugebauer, J. Pisarek, C. Plett, P. Pracht, F. Pultar,
   J. Seibert, P. Shushkov, S. Spicher, M. Stahn, M. Steiner, T. Strunk,
   J. Stückrath, T. Rose, and J. Unsleber
   
 * started run on 2023/12/04 at 13:54:04.742     

           -------------------------------------------------
          |                Calculation Setup                |
           -------------------------------------------------

          program call               : otool_xtb /tmp/C00118_XTB.xyz --grad -c 0 -u 0 -P 1 --namespace /tmp/C00118 --input /tmp/C00118_XTB.input.tmp --acc 1.000000
          calculation namespace      : /tmp/C00118
          coordinate file            : /tmp/C00118_XTB.xyz
          omp threads                :                     1

   ID    Z sym.   atoms
    1    8 O      1, 4, 6, 8-10
    2    6 C      2, 3, 5
    3   15 P      7
    4    1 H      11-17

           -------------------------------------------------
          |                 G F N 2 - x T B                 |
           -------------------------------------------------

        Reference                      10.1021/acs.jctc.8b01176
      * Hamiltonian:
        H0-scaling (s, p, d)           1.850000    2.230000    2.230000
        zeta-weighting                 0.500000
      * Dispersion:
        s8                             2.700000
        a1                             0.520000
        a2                             5.000000
        s9                             5.000000
      * Repulsion:
        kExp                           1.500000    1.000000
        rExp                           1.000000
      * Coulomb:
        alpha                          2.000000
        third order                    shell-resolved
        anisotropic                    true
        a3                             3.000000
        a5                             4.000000
        cn-shift                       1.200000
        cn-exp                         4.000000
        max-rad                        5.000000

q/qsh data taken from xtbrestart
CAMM data taken from xtbrestart

          ...................................................
          :                      SETUP                      :
          :.................................................:
          :  # basis functions                  53          :
          :  # atomic orbitals                  52          :
          :  # shells                           28          :
          :  # electrons                        60          :
          :  max. iterations                   250          :
          :  Hamiltonian                  GFN2-xTB          :
          :  restarted?                       true          :
          :  GBSA solvation                  false          :
          :  PC potential                    false          :
          :  electronic temp.          300.0000000     K    :
          :  accuracy                    1.0000000          :
          :  -> integral cutoff          0.2500000E+02      :
          :  -> integral neglect         0.1000000E-07      :
          :  -> SCF convergence          0.1000000E-05 Eh   :
          :  -> wf. convergence          0.1000000E-03 e    :
          :  Broyden damping             0.4000000          :
          ...................................................

 iter      E             dE          RMSdq      gap      omega  full diag
   1    -37.2836070 -0.372836E+02  0.602E-01    3.71       0.0  T
   2    -37.2836784 -0.713976E-04  0.360E-01    3.70       1.0  T
   3    -37.2836815 -0.315478E-05  0.512E-02    3.70       1.0  T
   4    -37.2836886 -0.703773E-05  0.158E-02    3.69       1.5  T
   5    -37.2836891 -0.563007E-06  0.730E-03    3.70       3.3  T
   6    -37.2836893 -0.177946E-06  0.296E-03    3.70       8.2  T
   7    -37.2836893 -0.219212E-07  0.116E-03    3.70      20.8  T
   8    -37.2836893 -0.602562E-09  0.283E-04    3.70      85.6  T
   9    -37.2836893 -0.176989E-09  0.107E-04    3.70     225.9  T

   *** convergence criteria satisfied after 9 iterations ***

         #    Occupation            Energy/Eh            Energy/eV
      -------------------------------------------------------------
         1        2.0000           -0.7613702             -20.7179
       ...           ...                  ...                  ...
        24        2.0000           -0.5056061             -13.7582
        25        2.0000           -0.4981279             -13.5547
        26        2.0000           -0.4724355             -12.8556
        27        2.0000           -0.4578424             -12.4585
        28        2.0000           -0.4530624             -12.3285
        29        2.0000           -0.4443996             -12.0927
        30        2.0000           -0.4286605             -11.6644 (HOMO)
        31                         -0.2928589              -7.9691 (LUMO)
        32                         -0.0852776              -2.3205
        33                         -0.0458885              -1.2487
        34                         -0.0373171              -1.0155
        35                          0.0191015               0.5198
       ...                                ...                  ...
        52                          1.2268330              33.3838
      -------------------------------------------------------------
                  HL-Gap            0.1358016 Eh            3.6953 eV
             Fermi-level           -0.3607597 Eh           -9.8168 eV

 SCC (total)                   0 d,  0 h,  0 min,  0.015 sec
 SCC setup                      ...        0 min,  0.000 sec (  0.930%)
 Dispersion                     ...        0 min,  0.000 sec (  0.556%)
 classical contributions        ...        0 min,  0.000 sec (  0.130%)
 integral evaluation            ...        0 min,  0.002 sec ( 16.640%)
 iterations                     ...        0 min,  0.005 sec ( 36.595%)
 molecular gradient             ...        0 min,  0.006 sec ( 44.434%)
 printout                       ...        0 min,  0.000 sec (  0.626%)

         :::::::::::::::::::::::::::::::::::::::::::::::::::::
         ::                     SUMMARY                     ::
         :::::::::::::::::::::::::::::::::::::::::::::::::::::
         :: total energy             -37.019349593479 Eh    ::
         :: gradient norm              0.030842399378 Eh/a0 ::
         :: HOMO-LUMO gap              3.695348993775 eV    ::
         ::.................................................::
         :: SCC energy               -37.283689335294 Eh    ::
         :: -> isotropic ES            0.148116664872 Eh    ::
         :: -> anisotropic ES         -0.004280182353 Eh    ::
         :: -> anisotropic XC         -0.000022797047 Eh    ::
         :: -> dispersion             -0.012685189019 Eh    ::
         :: repulsion energy           0.264303132345 Eh    ::
         :: add. restraining           0.000000000000 Eh    ::
         :: total charge               0.000000000000 e     ::
         :::::::::::::::::::::::::::::::::::::::::::::::::::::


Property printout bound to 'properties.out'

           -------------------------------------------------
          | TOTAL ENERGY              -37.019349593479 Eh   |
          | GRADIENT NORM               0.030842399378 Eh/α |
          | HOMO-LUMO GAP               3.695348993775 eV   |
           -------------------------------------------------

------------------------------------------------------------------------
 * finished run on 2023/12/04 at 13:54:04.765     
------------------------------------------------------------------------
 total:
 * wall-time:     0 d,  0 h,  0 min,  0.023 sec
 *  cpu-time:     0 d,  0 h,  0 min,  0.020 sec
 * ratio c/w:     0.875 speedup
 SCF:
 * wall-time:     0 d,  0 h,  0 min,  0.015 sec
 *  cpu-time:     0 d,  0 h,  0 min,  0.012 sec
 * ratio c/w:     0.820 speedup


-------------------------   --------------------
FINAL SINGLE POINT ENERGY       -37.019349593480
-------------------------   --------------------

------------------------------------------------------------------------------
                         ORCA GEOMETRY RELAXATION STEP
------------------------------------------------------------------------------

Reading the OPT-File                    .... done
Getting information on internals        .... done
Copying old internal coords+grads       .... done
Making the new internal coordinates     .... (new redundants).... done
Validating the new internal coordinates .... (new redundants).... done
Calculating the B-matrix                .... done
Calculating the G,G- and P matrices     .... done
Transforming gradient to internals      .... done
Projecting the internal gradient        .... done
Number of atoms                         ....  17
Number of internal coordinates          ....  71
Current Energy                          ....   -37.019349593 Eh
Current gradient norm                   ....     0.030842399 Eh/bohr
Maximum allowed component of the step   ....  0.300
Current trust radius                    ....  0.300
Updating the Hessian (BFGS)             .... done
Forming the augmented Hessian           .... done
Diagonalizing the augmented Hessian     .... done
Last element of RFO vector              ....  0.965709350
Lowest eigenvalues of augmented Hessian:
 -0.002222699  0.010797725  0.011500044  0.013243016  0.013297194
Length of the computed step             ....  0.268844448
The final length of the internal step   ....  0.268844448
Converting the step to cartesian space:
 Initial RMS(Int)=    0.0319059660
Transforming coordinates:
 Iter   0:  RMS(Cart)=    0.0386729019 RMS(Int)=    0.0316431622
 Iter   1:  RMS(Cart)=    0.0025937138 RMS(Int)=    0.0021520480
 Iter   2:  RMS(Cart)=    0.0002795480 RMS(Int)=    0.0002354061
 Iter   3:  RMS(Cart)=    0.0000403155 RMS(Int)=    0.0000339516
 Iter   4:  RMS(Cart)=    0.0000048116 RMS(Int)=    0.0000041001
 Iter   5:  RMS(Cart)=    0.0000006871 RMS(Int)=    0.0000005741
 Iter   6:  RMS(Cart)=    0.0000000834 RMS(Int)=    0.0000000715
done
Storing new coordinates                 .... done

                                .--------------------.
          ----------------------|Geometry convergence|-------------------------
          Item                value                   Tolerance       Converged
          ---------------------------------------------------------------------
          Energy change      -0.0014797310            0.0000050000      NO
          RMS gradient        0.0028006064            0.0001000000      NO
          MAX gradient        0.0176514324            0.0003000000      NO
          RMS step            0.0319059660            0.0020000000      NO
          MAX step            0.1489282810            0.0040000000      NO
          ........................................................
          Max(Bonds)      0.0063      Max(Angles)    0.86
          Max(Dihed)        8.53      Max(Improp)    0.00
          ---------------------------------------------------------------------

The optimization has not yet converged - more geometry cycles are needed


    ---------------------------------------------------------------------------
                         Redundant Internal Coordinates
                            (Angstroem and degrees)

        Definition                    Value    dE/dq     Step     New-Value
[...]
     27       0.001194  -0.000451   0.001099   0.001405  -0.000075   0.000203
     28      -0.000372  -0.000157   0.000264  -0.015366  -0.001681  -0.000419
     29       0.002216  -0.000371   0.002490  -0.036782  -0.004516  -0.001167
     30      -0.028601  -0.084601  -0.148286   0.136656  -0.018132  -0.403392
     31       0.025449   0.174601   0.276744  -0.251650   0.041304   0.763359
     32       0.017683   0.029866   0.147100  -0.143808   0.064408   0.338873
     33       0.102049   0.426835   0.095579   0.151786  -0.227381  -0.070720
     34      -0.471039   0.525433   0.581023  -0.121466   0.276560  -0.294699
     35       0.005570  -0.076954  -0.010665  -0.030914   0.046263   0.004241
     36       0.021391  -0.076421   0.076247  -0.032961   0.089514  -0.012359
     37       0.164452  -0.372788   0.340026  -0.225715   0.440865  -0.063752
     38      -0.091657   0.215002  -0.173155   0.134545  -0.236778   0.027802
     39       0.554390   0.500300  -0.224552  -0.268491   0.467772  -0.039762
     40      -0.072345  -0.005632   0.023299   0.011872  -0.019155  -0.018223
     41      -0.269673  -0.131947   0.067666   0.064520  -0.135951  -0.006784
     42      -0.534204   0.057277  -0.530781  -0.291945   0.528913   0.130204
     43       0.085311  -0.054896   0.004838   0.002894  -0.048610   0.013231
     44       0.199817  -0.062328   0.172752   0.111059  -0.195705  -0.041030
     45      -0.008347  -0.008514   0.005507  -0.048104  -0.016165  -0.003988
     46       0.004458  -0.000056   0.005032  -0.129099  -0.015654  -0.006787
     47      -0.004107  -0.000657  -0.002429   0.064105   0.007784   0.003910
     48       0.002108  -0.001972   0.001959   0.022405   0.000706   0.000149
     49       0.000619  -0.000238  -0.000981   0.038269   0.004016   0.000571
     50       0.001532   0.001912  -0.004433   0.185579   0.020906   0.005048
                 42         43         44         45         46         47    
      0       0.000233   0.022885  -0.000170   0.001475   0.000007  -0.000134
      1      -0.000179  -0.539201   0.000416   0.002318   0.000158  -0.000409
      2       0.000352  -0.040485   0.000257  -0.000945   0.000056  -0.000023
      3       0.000747  -0.067507  -0.005138   0.049835   0.000027   0.000715
      4      -0.000510   0.751229  -0.006542   0.046226  -0.000304   0.001135
      5      -0.000689   0.078736   0.000734  -0.035003  -0.000241  -0.000339
      6      -0.001186  -0.001033  -0.021510   0.000612  -0.002259   0.000535
      7       0.005097  -0.043315  -0.000176   0.002039   0.001012   0.002067
      8       0.002055  -0.000211  -0.071261  -0.009496  -0.005501  -0.000496
      9      -0.000448   0.009205  -0.000320  -0.000395   0.000296   0.000069
     10      -0.001853  -0.004559   0.003552   0.000022   0.000055  -0.000261
     11      -0.000050  -0.008654  -0.002547   0.000147   0.000065   0.000200
     12       0.023211   0.010060  -0.000070  -0.000400  -0.026452   0.003922
     13       0.063723   0.008630  -0.002006  -0.001309   0.024804   0.067711
     14       0.041911  -0.002813   0.001479  -0.000078  -0.076352  -0.005383
     15      -0.005400  -0.006256   0.000066   0.000290   0.001077  -0.002161
     16       0.007569  -0.002384   0.000077  -0.000077  -0.000544   0.001994
     17       0.008200   0.000375   0.000315  -0.000018  -0.001881   0.001651
     18       0.001005   0.002744  -0.000038  -0.000143  -0.000120   0.000211
     19      -0.000689   0.001243   0.000028   0.000029  -0.000109   0.000325
     20      -0.000246  -0.000001  -0.000085  -0.000021  -0.000239   0.000136
     21      -0.000503  -0.001707   0.000037   0.000079  -0.000021   0.000044
     22       0.000957   0.000432  -0.000012  -0.000057   0.000057  -0.000125
     23       0.000746   0.000806   0.000029  -0.000029   0.000083  -0.000079
     24      -0.000106  -0.000746   0.000043   0.000063  -0.000020   0.000091
     25      -0.000017  -0.001619  -0.000002   0.000000  -0.000052  -0.000291
     26       0.000297   0.000612   0.000021  -0.000013   0.000063  -0.000152
     27       0.000135  -0.000905   0.000021   0.000038  -0.000090   0.000110
     28       0.000630  -0.000673  -0.000039   0.000002   0.000050  -0.000195
     29      -0.000446  -0.000964   0.000085   0.000065   0.000292  -0.000067
     30      -0.002019   0.278308   0.067767  -0.646424  -0.000428  -0.007663
     31       0.001655   0.095585   0.064934  -0.601239  -0.000222  -0.006165
     32      -0.000601  -0.191204  -0.049246   0.451127  -0.000207   0.005165
     33       0.002612   0.035400   0.273894   0.031756   0.013473  -0.001098
     34       0.002954   0.036480  -0.040771  -0.004129  -0.002516  -0.000331
     35       0.003299   0.015430   0.950561   0.099881   0.048368  -0.001817
     36       0.003456   0.000281   0.000866   0.002966  -0.001940  -0.000039
     37      -0.004050  -0.029265   0.003072  -0.001306  -0.000235  -0.000865
     38       0.007133   0.012771   0.003842  -0.001206  -0.000807   0.000057
     39      -0.206608  -0.029555  -0.000229  -0.002964   0.000690   0.058574
     40      -0.201887   0.017184   0.010463   0.011860  -0.252535  -0.905619
     41      -0.638746   0.011936  -0.000987  -0.002830   0.050722   0.304744
     42      -0.004596  -0.031751  -0.017763  -0.001583   0.311666  -0.083881
     43      -0.708042  -0.005157   0.001595  -0.000460  -0.041487   0.046131
     44      -0.021479   0.016923  -0.049299  -0.002606   0.908336  -0.263829
     45       0.005492   0.000530  -0.000058  -0.000449   0.000665  -0.001988
     46       0.005579   0.003437   0.000143   0.000054   0.000795  -0.000860
     47      -0.003028  -0.004963  -0.000160   0.000113  -0.000558   0.001449
     48      -0.003918   0.002554   0.000175   0.000188   0.001515  -0.000580
     49      -0.001800   0.003401   0.000287  -0.000208  -0.000059   0.001436
     50       0.000899   0.003723  -0.000120  -0.000085   0.000686  -0.000153
                 48         49         50    
      0      -0.000016  -0.000000   0.000011
      1       0.000113   0.000055  -0.000032
      2       0.000016   0.000017  -0.000006
      3       0.000312   0.000040  -0.000053
      4      -0.000304  -0.000093   0.000048
      5      -0.000101  -0.000053   0.000047
      6       0.000862  -0.000015  -0.000021
      7      -0.001495   0.000029  -0.000071
      8      -0.000059   0.000024  -0.000041
      9       0.045570  -0.000172   0.000028
     10      -0.028911   0.000077   0.000026
     11      -0.030349   0.000115  -0.000013
     12      -0.000091   0.000338  -0.000338
     13       0.000114  -0.000098   0.000240
     14       0.000122  -0.000226   0.000275
     15      -0.000136  -0.000462   0.000539
     16      -0.000175  -0.000168   0.000029
     17       0.000001   0.000197   0.000146
     18       0.000012  -0.000111  -0.000131
     19       0.000107   0.000290   0.000141
     20       0.000068   0.000423  -0.000327
     21      -0.000013   0.000162  -0.000089
     22      -0.000084  -0.000392   0.000193
     23      -0.000037  -0.000320   0.000277
     24       0.000015  -0.001382   0.000152
     25       0.000070   0.037191  -0.002818
     26       0.000165   0.050130  -0.002973
     27       0.000021  -0.002214  -0.033598
     28      -0.000033   0.003362   0.051586
     29      -0.000051  -0.000471  -0.010485
     30      -0.003368  -0.000126   0.000103
     31      -0.001266  -0.000023   0.000098
     32       0.002057   0.000098  -0.000196
     33      -0.001463  -0.000077   0.000001
     34       0.000509   0.000046  -0.000067
     35      -0.001169   0.000006   0.000102
     36      -0.730295   0.002607  -0.000374
     37       0.480410  -0.001490  -0.000101
     38       0.481668  -0.001703   0.000112
     39       0.000490   0.000895   0.000254
     40      -0.000073  -0.001235  -0.001166
     41      -0.000507  -0.000462   0.000232
     42       0.000123   0.000323  -0.000760
     43      -0.000311  -0.000225   0.000504
     44      -0.001051  -0.000587  -0.001105
     45      -0.000124   0.025080  -0.001947
     46      -0.002081  -0.585985   0.040490
     47      -0.002814  -0.804820   0.051787
     48       0.000120   0.034956   0.534754
     49       0.000183  -0.054962  -0.824152
     50       0.000396   0.009174   0.162988


-----------
IR SPECTRUM
-----------

 Mode   freq       eps      Int      T**2         TX        TY        TZ
       cm**-1   L/(mol*cm) km/mol    a.u.
----------------------------------------------------------------------------
  6:     16.77   0.000385    1.95  0.007166  ( 0.082842  0.002841  0.017181)
  7:     34.66   0.001947    9.84  0.017529  ( 0.031468 -0.095581  0.086043)
  8:     73.12   0.002465   12.46  0.010519  (-0.088487 -0.024658 -0.045619)
  9:     96.77   0.004450   22.49  0.014349  ( 0.111818 -0.032931  0.027587)
 10:    106.50   0.000936    4.73  0.002744  (-0.012760 -0.013093  0.049090)
 11:    153.07   0.008723   44.08  0.017783  ( 0.097409 -0.084538  0.033876)
 12:    192.61   0.003475   17.56  0.005631  ( 0.066881 -0.022750 -0.025301)
 13:    204.03   0.005886   29.75  0.009003  ( 0.091758  0.023843  0.003832)
 14:    252.75   0.024404  123.33  0.030131  ( 0.151171  0.083960 -0.015134)
 15:    320.41   0.006818   34.46  0.006641  ( 0.070408  0.030269  0.027695)
 16:    331.46   0.007066   35.71  0.006652  ( 0.080173  0.009546  0.011560)
 17:    372.10   0.002753   13.91  0.002309  (-0.045260 -0.004365  0.015538)
 18:    390.90   0.021450  108.40  0.017124  (-0.089816 -0.068952 -0.065597)
 19:    420.27   0.008043   40.65  0.005972  (-0.017386 -0.025511  0.070846)
 20:    426.93   0.014179   71.65  0.010364  (-0.045664  0.072002 -0.055627)
 21:    439.53   0.027000  136.45  0.019170  (-0.116482 -0.036282 -0.065463)
 22:    479.65   0.006457   32.63  0.004201  (-0.061778  0.001502  0.019552)
 23:    585.71   0.001123    5.68  0.000598  (-0.000912  0.009618  0.022476)
 24:    765.92   0.009777   49.41  0.003984  ( 0.026388  0.008351  0.056724)
 25:    798.67   0.036380  183.85  0.014215  (-0.110627 -0.001150 -0.044442)
 26:    823.02   0.017713   89.51  0.006716  (-0.081405 -0.005902  0.007391)
 27:    825.97   0.041836  211.42  0.015806  (-0.104896 -0.068968  0.006831)
 28:    884.18   0.096092  485.61  0.033915  (-0.023132 -0.133730  0.124483)
 29:    903.47   0.027786  140.42  0.009597  (-0.037263 -0.031343 -0.085008)
 30:    918.40   0.008550   43.21  0.002905  ( 0.041412  0.034138  0.004984)
 31:    994.74   0.008419   42.55  0.002641  (-0.023020  0.001688  0.045919)
 32:   1070.15   0.002551   12.89  0.000744  (-0.008022  0.022923 -0.012415)
 33:   1076.56   0.033505  169.32  0.009712  ( 0.083563 -0.027080 -0.044678)
 34:   1140.76   0.012581   63.58  0.003442  (-0.014935  0.056119 -0.008314)
 35:   1158.34   0.011331   57.26  0.003053  (-0.035162 -0.034177  0.025458)
 36:   1203.96   0.003427   17.32  0.000888  ( 0.010195 -0.002148  0.027922)
 37:   1248.32   0.010882   54.99  0.002720  ( 0.019473 -0.046896 -0.011916)
 38:   1302.34   0.004002   20.22  0.000959  ( 0.009049  0.020562 -0.021314)
 39:   1320.26   0.070098  354.25  0.016569  (-0.061164  0.066560  0.091639)
 40:   1326.74   0.011959   60.44  0.002813  (-0.013998  0.050741  0.006504)
 41:   1337.60   0.000986    4.98  0.000230  ( 0.003726  0.012869 -0.007109)
 42:   1453.94   0.000410    2.07  0.000088  (-0.006120  0.006340  0.003202)
 43:   1797.47   0.046745  236.23  0.008116  (-0.028485  0.081862  0.024550)
 44:   2811.65   0.003291   16.63  0.000365  (-0.014548 -0.000204 -0.012391)
 45:   2827.35   0.014847   75.03  0.001639  ( 0.028807  0.024532 -0.014389)
 46:   2936.73   0.007329   37.04  0.000779  (-0.016331  0.004465 -0.022183)
 47:   2949.83   0.003317   16.76  0.000351  (-0.008583  0.015852  0.005089)
 48:   3515.53   0.005886   29.75  0.000523  (-0.017626  0.010893  0.009653)
 49:   3602.04   0.014734   74.46  0.001277  (-0.016390 -0.019160 -0.025314)
 50:   3638.20   0.012201   61.66  0.001047  ( 0.014155 -0.027425  0.009695)

* The epsilon (eps) is given for a Dirac delta lineshape.
** The dipole moment derivative (T) already includes vibrational overlap.

The first frequency considered to be a vibration is 6
The total number of vibrations considered is 45


--------------------------
THERMOCHEMISTRY AT 298.15K
--------------------------

Temperature         ... 298.15 K
Pressure            ... 1.00 atm
Total Mass          ... 170.06 AMU

Throughout the following assumptions are being made:
  (1) The electronic state is orbitally nondegenerate
  (2) There are no thermally accessible electronically excited states
  (3) Hindered rotations indicated by low frequency modes are not
      treated as such but are treated as vibrations and this may
      cause some error
  (4) All equations used are the standard statistical mechanics
      equations for an ideal gas
  (5) All vibrations are strictly harmonic

freq.      16.77  E(vib)   ...       0.57 
freq.      34.66  E(vib)   ...       0.54 
freq.      73.12  E(vib)   ...       0.49 
freq.      96.77  E(vib)   ...       0.46 
freq.     106.50  E(vib)   ...       0.45 
freq.     153.07  E(vib)   ...       0.40 
freq.     192.61  E(vib)   ...       0.36 
freq.     204.03  E(vib)   ...       0.35 
freq.     252.75  E(vib)   ...       0.30 
freq.     320.41  E(vib)   ...       0.25 
freq.     331.46  E(vib)   ...       0.24 
freq.     372.10  E(vib)   ...       0.21 
freq.     390.90  E(vib)   ...       0.20 
freq.     420.27  E(vib)   ...       0.18 
freq.     426.93  E(vib)   ...       0.18 
freq.     439.53  E(vib)   ...       0.17 
freq.     479.65  E(vib)   ...       0.15 
freq.     585.71  E(vib)   ...       0.11 
freq.     765.92  E(vib)   ...       0.06 
freq.     798.67  E(vib)   ...       0.05 
freq.     823.02  E(vib)   ...       0.05 
freq.     825.97  E(vib)   ...       0.04 
freq.     884.18  E(vib)   ...       0.04 
freq.     903.47  E(vib)   ...       0.03 
freq.     918.40  E(vib)   ...       0.03 
freq.     994.74  E(vib)   ...       0.02 
freq.    1070.15  E(vib)   ...       0.02 
freq.    1076.56  E(vib)   ...       0.02 
freq.    1140.76  E(vib)   ...       0.01 
freq.    1158.34  E(vib)   ...       0.01 
freq.    1203.96  E(vib)   ...       0.01 
freq.    1248.32  E(vib)   ...       0.01 
freq.    1302.34  E(vib)   ...       0.01 
freq.    1320.26  E(vib)   ...       0.01 
freq.    1326.74  E(vib)   ...       0.01 
freq.    1337.60  E(vib)   ...       0.01 
freq.    1453.94  E(vib)   ...       0.00 
freq.    1797.47  E(vib)   ...       0.00 
freq.    2811.65  E(vib)   ...       0.00 
freq.    2827.35  E(vib)   ...       0.00 
freq.    2936.73  E(vib)   ...       0.00 
freq.    2949.83  E(vib)   ...       0.00 
freq.    3515.53  E(vib)   ...       0.00 
freq.    3602.04  E(vib)   ...       0.00 
freq.    3638.20  E(vib)   ...       0.00 

------------
INNER ENERGY
------------

The inner energy is: U= E(el) + E(ZPE) + E(vib) + E(rot) + E(trans)
    E(el)   - is the total energy from the electronic structure calculation
              = E(kin-el) + E(nuc-el) + E(el-el) + E(nuc-nuc)
    E(ZPE)  - the the zero temperature vibrational energy from the frequency calculation
    E(vib)  - the the finite temperature correction to E(ZPE) due to population
              of excited vibrational states
    E(rot)  - is the rotational thermal energy
    E(trans)- is the translational thermal energy

Summary of contributions to the inner energy U:
Electronic energy                ...    -37.02121745 Eh
Zero point energy                ...      0.11283625 Eh      70.81 kcal/mol
Thermal vibrational correction   ...      0.00964486 Eh       6.05 kcal/mol
Thermal rotational correction    ...      0.00141627 Eh       0.89 kcal/mol
Thermal translational correction ...      0.00141627 Eh       0.89 kcal/mol
-----------------------------------------------------------------------
Total thermal energy                    -36.89590380 Eh


Summary of corrections to the electronic energy:
(perhaps to be used in another calculation)
Total thermal correction                  0.01247740 Eh       7.83 kcal/mol
Non-thermal (ZPE) correction              0.11283625 Eh      70.81 kcal/mol
-----------------------------------------------------------------------
Total correction                          0.12531365 Eh      78.64 kcal/mol


--------
ENTHALPY
--------

The enthalpy is H = U + kB*T
                kB is Boltzmann's constant
Total free energy                 ...    -36.89590380 Eh 
Thermal Enthalpy correction       ...      0.00094421 Eh       0.59 kcal/mol
-----------------------------------------------------------------------
Total Enthalpy                    ...    -36.89495960 Eh


Note: Only C1 symmetry has been detected, increase convergence thresholds 
      if your molecule has a higher symmetry. Symmetry factor of 1.0 is   
      used for the rotational entropy correction. 
 

Note: Rotational entropy computed according to Herzberg 
Infrared and Raman Spectra, Chapter V,1, Van Nostrand Reinhold, 1945 
Point Group:  C1, Symmetry Number:   1  
Rotational constants in cm-1:     0.078396     0.019123     0.017309 

Vibrational entropy computed according to the QRRHO of S. Grimme
Chem.Eur.J. 2012 18 9955


-------
ENTROPY
-------

The entropy contributions are T*S = T*(S(el)+S(vib)+S(rot)+S(trans))
     S(el)   - electronic entropy
     S(vib)  - vibrational entropy
     S(rot)  - rotational entropy
     S(trans)- translational entropy
The entropies will be listed as multiplied by the temperature to get
units of energy

Electronic entropy                ...      0.00000000 Eh      0.00 kcal/mol
Vibrational entropy               ...      0.01758817 Eh     11.04 kcal/mol
Rotational entropy                ...      0.01449577 Eh      9.10 kcal/mol
Translational entropy             ...      0.01962323 Eh     12.31 kcal/mol
-----------------------------------------------------------------------
Final entropy term                ...      0.05170716 Eh     32.45 kcal/mol

In case the symmetry of your molecule has not been determined correctly
or in case you have a reason to use a different symmetry number we print 
out the resulting rotational entropy values for sn=1,12 :
 --------------------------------------------------------
|  sn= 1 | S(rot)=       0.01449577 Eh      9.10 kcal/mol|
|  sn= 2 | S(rot)=       0.01384131 Eh      8.69 kcal/mol|
|  sn= 3 | S(rot)=       0.01345848 Eh      8.45 kcal/mol|
|  sn= 4 | S(rot)=       0.01318685 Eh      8.27 kcal/mol|
|  sn= 5 | S(rot)=       0.01297617 Eh      8.14 kcal/mol|
|  sn= 6 | S(rot)=       0.01280402 Eh      8.03 kcal/mol|
|  sn= 7 | S(rot)=       0.01265848 Eh      7.94 kcal/mol|
|  sn= 8 | S(rot)=       0.01253240 Eh      7.86 kcal/mol|
|  sn= 9 | S(rot)=       0.01242119 Eh      7.79 kcal/mol|
|  sn=10 | S(rot)=       0.01232171 Eh      7.73 kcal/mol|
|  sn=11 | S(rot)=       0.01223172 Eh      7.68 kcal/mol|
|  sn=12 | S(rot)=       0.01214957 Eh      7.62 kcal/mol|
 --------------------------------------------------------


-------------------
GIBBS FREE ENERGY
-------------------

The Gibbs free energy is G = H - T*S

Total enthalpy                    ...    -36.89495960 Eh 
Total entropy correction          ...     -0.05170716 Eh    -32.45 kcal/mol
-----------------------------------------------------------------------
Final Gibbs free energy         ...    -36.94666676 Eh

For completeness - the Gibbs free energy minus the electronic energy
G-E(el)                           ...      0.07455069 Eh     46.78 kcal/mol



Timings for individual modules:

Sum of individual times         ...      246.471 sec (=   4.108 min)
Geometry relaxation             ...        0.298 sec (=   0.005 min)   0.1 %
Numerical frequency calculation ...      245.831 sec (=   4.097 min)  99.7 %
XTB module                      ...        0.342 sec (=   0.006 min)   0.1 %
                             ****ORCA TERMINATED NORMALLY****
TOTAL RUN TIME: 0 days 0 hours 4 minutes 6 seconds 738 msec
