
                                 *****************
                                 * O   R   C   A *
                                 *****************

                                            #,                                       
                                            ###                                      
                                            ####                                     
                                            #####                                    
                                            ######                                   
                                           ########,                                 
                                     ,,################,,,,,                         
                               ,,#################################,,                 
                          ,,##########################################,,             
                       ,#########################################, ''#####,          
                    ,#############################################,,   '####,        
                  ,##################################################,,,,####,       
                ,###########''''           ''''###############################       
              ,#####''   ,,,,##########,,,,          '''####'''          '####       
            ,##' ,,,,###########################,,,                        '##       
           ' ,,###''''                  '''############,,,                           
         ,,##''                                '''############,,,,        ,,,,,,###''
      ,#''                                            '''#######################'''  
     '                                                          ''''####''''         
             ,#######,   #######,   ,#######,      ##                                
            ,#'     '#,  ##    ##  ,#'     '#,    #''#        ######   ,####,        
            ##       ##  ##   ,#'  ##            #'  '#       #        #'  '#        
            ##       ##  #######   ##           ,######,      #####,   #    #        
            '#,     ,#'  ##    ##  '#,     ,#' ,#      #,         ##   #,  ,#        
             '#######'   ##     ##  '#######'  #'      '#     #####' # '####'        



                  #######################################################
                  #                        -***-                        #
                  #          Department of theory and spectroscopy      #
                  #    Directorship and core code : Frank Neese         #
                  #        Max Planck Institute fuer Kohlenforschung    #
                  #                Kaiser Wilhelm Platz 1               #
                  #                 D-45470 Muelheim/Ruhr               #
                  #                      Germany                        #
                  #                                                     #
                  #                  All rights reserved                #
                  #                        -***-                        #
                  #######################################################


                         Program Version 5.0.3 -  RELEASE  -


 With contributions from (in alphabetic order):
   Daniel Aravena         : Magnetic Suceptibility
   Michael Atanasov       : Ab Initio Ligand Field Theory (pilot matlab implementation)
   Alexander A. Auer      : GIAO ZORA, VPT2 properties, NMR spectrum
   Ute Becker             : Parallelization
   Giovanni Bistoni       : ED, misc. LED, open-shell LED, HFLD
   Martin Brehm           : Molecular dynamics
   Dmytro Bykov           : SCF Hessian
   Vijay G. Chilkuri      : MRCI spin determinant printing, contributions to CSF-ICE
   Dipayan Datta          : RHF DLPNO-CCSD density
   Achintya Kumar Dutta   : EOM-CC, STEOM-CC
   Dmitry Ganyushin       : Spin-Orbit,Spin-Spin,Magnetic field MRCI
   Miquel Garcia          : C-PCM and meta-GGA Hessian, CC/C-PCM, Gaussian charge scheme
   Yang Guo               : DLPNO-NEVPT2, F12-NEVPT2, CIM, IAO-localization
   Andreas Hansen         : Spin unrestricted coupled pair/coupled cluster methods
   Benjamin Helmich-Paris : MC-RPA, TRAH-SCF, COSX integrals
   Lee Huntington         : MR-EOM, pCC
   Robert Izsak           : Overlap fitted RIJCOSX, COSX-SCS-MP3, EOM
   Marcus Kettner         : VPT2
   Christian Kollmar      : KDIIS, OOCD, Brueckner-CCSD(T), CCSD density, CASPT2, CASPT2-K
   Simone Kossmann        : Meta GGA functionals, TD-DFT gradient, OOMP2, MP2 Hessian
   Martin Krupicka        : Initial AUTO-CI
   Lucas Lang             : DCDCAS
   Marvin Lechner         : AUTO-CI (C++ implementation), FIC-MRCC
   Dagmar Lenk            : GEPOL surface, SMD
   Dimitrios Liakos       : Extrapolation schemes; Compound Job, initial MDCI parallelization
   Dimitrios Manganas     : Further ROCIS development; embedding schemes
   Dimitrios Pantazis     : SARC Basis sets
   Anastasios Papadopoulos: AUTO-CI, single reference methods and gradients
   Taras Petrenko         : DFT Hessian,TD-DFT gradient, ASA, ECA, R-Raman, ABS, FL, XAS/XES, NRVS
   Peter Pinski           : DLPNO-MP2, DLPNO-MP2 Gradient
   Christoph Reimann      : Effective Core Potentials
   Marius Retegan         : Local ZFS, SOC
   Christoph Riplinger    : Optimizer, TS searches, QM/MM, DLPNO-CCSD(T), (RO)-DLPNO pert. Triples
   Tobias Risthaus        : Range-separated hybrids, TD-DFT gradient, RPA, STAB
   Michael Roemelt        : Original ROCIS implementation
   Masaaki Saitow         : Open-shell DLPNO-CCSD energy and density
   Barbara Sandhoefer     : DKH picture change effects
   Avijit Sen             : IP-ROCIS
   Kantharuban Sivalingam : CASSCF convergence, NEVPT2, FIC-MRCI
   Bernardo de Souza      : ESD, SOC TD-DFT
   Georgi Stoychev        : AutoAux, RI-MP2 NMR, DLPNO-MP2 response
   Willem Van den Heuvel  : Paramagnetic NMR
   Boris Wezisla          : Elementary symmetry handling
   Frank Wennmohs         : Technical directorship


 We gratefully acknowledge several colleagues who have allowed us to
 interface, adapt or use parts of their codes:
   Stefan Grimme, W. Hujo, H. Kruse, P. Pracht,  : VdW corrections, initial TS optimization,
                  C. Bannwarth, S. Ehlert          DFT functionals, gCP, sTDA/sTD-DF
   Ed Valeev, F. Pavosevic, A. Kumar             : LibInt (2-el integral package), F12 methods
   Garnet Chan, S. Sharma, J. Yang, R. Olivares  : DMRG
   Ulf Ekstrom                                   : XCFun DFT Library
   Mihaly Kallay                                 : mrcc  (arbitrary order and MRCC methods)
   Jiri Pittner, Ondrej Demel                    : Mk-CCSD
   Frank Weinhold                                : gennbo (NPA and NBO analysis)
   Christopher J. Cramer and Donald G. Truhlar   : smd solvation model
   Lars Goerigk                                  : TD-DFT with DH, B97 family of functionals
   V. Asgeirsson, H. Jonsson                     : NEB implementation
   FAccTs GmbH                                   : IRC, NEB, NEB-TS, DLPNO-Multilevel, CI-OPT
                                                   MM, QMMM, 2- and 3-layer-ONIOM, Crystal-QMMM,
                                                   LR-CPCM, SF, NACMEs, symmetry and pop. for TD-DFT,
                                                   nearIR, NL-DFT gradient (VV10), updates on ESD,
                                                   ML-optimized integration grids
   S Lehtola, MJT Oliveira, MAL Marques          : LibXC Library
   Liviu Ungur et al                             : ANISO software


 Your calculation uses the libint2 library for the computation of 2-el integrals
 For citations please refer to: http://libint.valeyev.net

 Your ORCA version has been built with support for libXC version: 5.1.0
 For citations please refer to: https://tddft.org/programs/libxc/

 This ORCA versions uses:
   CBLAS   interface :  Fast vector & matrix operations
   LAPACKE interface :  Fast linear algebra routines
   SCALAPACK package :  Parallel linear algebra routines
   Shared memory     :  Shared parallel matrices
   BLAS/LAPACK       :  OpenBLAS 0.3.15  USE64BITINT DYNAMIC_ARCH NO_AFFINITY Haswell SINGLE_THREADED
        Core in use  :  Haswell
   Copyright (c) 2011-2014, The OpenBLAS Project


Your calculation utilizes the semiempirical GFN2-xTB method
Please cite in your paper:
C. Bannwarth, Ehlert S., S. Grimme,  J. Chem. Theory Comput., 15, (2019), 1652.
   

================================================================================

================================================================================
                                        WARNINGS
                       Please study these warnings very carefully!
================================================================================


WARNING: Geometry Optimization
  ===> : Switching off AutoStart
         For restart on a previous wavefunction, please use MOREAD

WARNING: Found dipole moment calculation with XTB calculation
  ===> : Switching off dipole moment calculation


WARNING: TRAH-SCF for XTB is not implemented!
  ===> : Turning TRAH off!

================================================================================
                                       INPUT FILE
================================================================================
NAME = /tmp/C00117.inp
|  1> ! XTB2 opt numfreq
|  2> * xyz 0 1
|  3> O 2.357836 -.288836 2.079174
|  4> P 3.072089 .092419 .859131
|  5> O 3.628072 1.618092 .760961
|  6> O 4.414938 -.752217 .574109
|  7> O 2.192152 -.012940 -.503492
|  8> C 1.044723 -.841127 -.498183
|  9> C -.141880 -.145797 .164583
| 10> O -.530572 1.027388 -.554962
| 11> C -1.912257 1.019598 -.808845
| 12> O -2.198162 .622770 -2.117384
| 13> C -2.534608 -.009566 .150319
| 14> O -2.740823 .497547 1.443097
| 15> C -1.396178 -1.052529 .231361
| 16> O -1.449719 -1.885419 1.337626
| 17> H 2.970356 2.245537 1.106305
| 18> H 4.893554 -.403845 -.187994
| 19> H 1.234198 -1.771000 .043873
| 20> H .826287 -1.050275 -1.549684
| 21> H .163544 .155423 1.176529
| 22> H -2.285645 2.045285 -.631108
| 23> H -1.576642 1.066094 -2.710867
| 24> H -3.455889 -.426278 -.277172
| 25> H -3.432690 1.168167 1.419726
| 26> H -1.436599 -1.694747 -.654326
| 27> H -1.581055 -1.332315 2.120636
| 28> *
| 29> 
| 30>                          ****END OF INPUT****
================================================================================

                       *****************************
                       * Geometry Optimization Run *
                       *****************************

Geometry optimization settings:
Update method            Update   .... BFGS
Choice of coordinates    CoordSys .... Z-matrix Internals
Initial Hessian          InHess   .... Almoef's Model

Convergence Tolerances:
Energy Change            TolE     ....  5.0000e-06 Eh
Max. Gradient            TolMAXG  ....  3.0000e-04 Eh/bohr
RMS Gradient             TolRMSG  ....  1.0000e-04 Eh/bohr
Max. Displacement        TolMAXD  ....  4.0000e-03 bohr
RMS Displacement         TolRMSD  ....  2.0000e-03 bohr
Strict Convergence                ....  False
------------------------------------------------------------------------------
                        ORCA OPTIMIZATION COORDINATE SETUP
------------------------------------------------------------------------------

The optimization will be done in new redundant internal coordinates
Making redundant internal coordinates   ...  (new redundants) done
Evaluating the initial hessian          ...  (Almloef) done
Evaluating the coordinates              ...  done
Calculating the B-matrix                .... done
Calculating the G-matrix                .... done
Diagonalizing the G-matrix              .... done
Small eigenvalue found = 1.079e-02
Small eigenvalue found = 1.826e-02
Small eigenvalue found = 2.400e-02
The first mode is                       ....   62
The number of degrees of freedom        ....   69

    -----------------------------------------------------------------
                    Redundant Internal Coordinates


    -----------------------------------------------------------------
         Definition                    Initial Value    Approx d2E/dq
    -----------------------------------------------------------------
      1. B(P   1,O   0)                  1.4642         1.431904   
      2. B(O   2,P   1)                  1.6268         0.788120   
      3. B(O   3,P   1)                  1.6118         0.832733   
      4. B(O   4,P   1)                  1.6255         0.791959   
      5. B(C   5,O   4)                  1.4151         0.510300   
      6. B(C   6,C   5)                  1.5267         0.378151   
      7. B(O   7,C   6)                  1.4301         0.482944   
      8. B(C   8,O   7)                  1.4048         0.529910   
      9. B(O   9,C   8)                  1.3970         0.545477   
     10. B(C  10,C   8)                  1.5383         0.362301   
     11. B(O  11,C  10)                  1.4039         0.531720   
     12. B(C  12,C  10)                  1.5461         0.352146   
     13. B(C  12,C   6)                  1.5492         0.348189   
     14. B(O  13,C  12)                  1.3858         0.568334   
     15. B(H  14,O   2)                  0.9724         0.496822   
     16. B(H  15,O   3)                  0.9650         0.510481   
     17. B(H  16,C   5)                  1.0929         0.356309   
     18. B(H  17,C   5)                  1.0941         0.354683   
     19. B(H  18,C   6)                  1.0991         0.348243   
     20. B(H  19,C   8)                  1.1059         0.339653   
     21. B(H  20,O   9)                  0.9670         0.506798   
     22. B(H  21,C  10)                  1.0978         0.349933   
     23. B(H  22,O  11)                  0.9638         0.512702   
     24. B(H  23,C  12)                  1.0948         0.353846   
     25. B(H  24,O  13)                  0.9676         0.505613   
     26. A(O   0,P   1,O   2)          117.4637         0.600323   
     27. A(O   2,P   1,O   4)          101.2573         0.536176   
     28. A(O   0,P   1,O   3)          114.6641         0.606735   
     29. A(O   0,P   1,O   4)          114.6798         0.600885   
     30. A(O   2,P   1,O   3)          101.3062         0.541286   
     31. A(O   3,P   1,O   4)          105.5934         0.541784   
     32. A(P   1,O   2,H  14)          110.6436         0.408190   
     33. A(P   1,O   3,H  15)          111.3268         0.414183   
     34. A(P   1,O   4,C   5)          118.2771         0.461993   
     35. A(H  16,C   5,H  17)          110.4038         0.289667   
     36. A(C   6,C   5,H  16)          107.8756         0.324404   
     37. A(O   4,C   5,H  16)          111.0535         0.338853   
     38. A(O   4,C   5,H  17)          105.6731         0.338595   
     39. A(C   6,C   5,H  17)          110.4322         0.324160   
     40. A(O   4,C   5,C   6)          111.4260         0.381801   
     41. A(C   5,C   6,C  12)          112.4229         0.359761   
     42. A(C   5,C   6,H  18)          107.9707         0.323187   
     43. A(C  12,C   6,H  18)          110.2252         0.318852   
     44. A(C   5,C   6,O   7)          111.4971         0.378172   
     45. A(O   7,C   6,H  18)          108.2970         0.334481   
     46. A(O   7,C   6,C  12)          106.3667         0.372820   
     47. A(C   6,O   7,C   8)          110.7134         0.398553   
     48. A(O   9,C   8,C  10)          108.1316         0.383385   
     49. A(O   7,C   8,C  10)          106.7934         0.381463   
     50. A(O   7,C   8,O   9)          111.8481         0.407203   
     51. A(C  10,C   8,H  19)          112.5618         0.319621   
     52. A(O   7,C   8,H  19)          107.3301         0.338279   
     53. A(O   9,C   8,H  19)          110.1758         0.339918   
     54. A(C   8,O   9,H  20)          108.2476         0.360505   
     55. A(C   8,C  10,O  11)          113.0739         0.381688   
     56. A(C  12,C  10,H  21)          112.4752         0.319693   
     57. A(C   8,C  10,H  21)          110.5278         0.321182   
     58. A(O  11,C  10,C  12)          107.6715         0.379811   
     59. A(C   8,C  10,C  12)          100.7250         0.357837   
     60. A(O  11,C  10,H  21)          111.8655         0.340161   
     61. A(C  10,O  11,H  22)          109.5386         0.359649   
     62. A(O  13,C  12,H  23)          106.9677         0.344618   
     63. A(C  10,C  12,H  23)          109.0343         0.320275   
     64. A(C   6,C  12,H  23)          109.7780         0.319684   
     65. A(C   6,C  12,O  13)          114.6754         0.383473   
     66. A(C   6,C  12,C  10)          101.4834         0.355430   
     67. A(C  10,C  12,O  13)          114.7613         0.384228   
     68. A(C  12,O  13,H  24)          107.9197         0.362894   
     69. D(H  14,O   2,P   1,O   3)   -167.3483         0.010888   
     70. D(H  14,O   2,P   1,O   4)     84.0311         0.010888   
     71. D(H  14,O   2,P   1,O   0)    -41.6495         0.010888   
     72. D(H  15,O   3,P   1,O   4)     58.5672         0.012062   
     73. D(H  15,O   3,P   1,O   2)    -46.6503         0.012062   
     74. D(H  15,O   3,P   1,O   0)   -174.1917         0.012062   
     75. D(C   5,O   4,P   1,O   2)   -148.1581         0.010986   
     76. D(C   5,O   4,P   1,O   3)    106.5886         0.010986   
     77. D(C   5,O   4,P   1,O   0)    -20.6430         0.010986   
     78. D(H  16,C   5,O   4,P   1)    -40.5307         0.020616   
     79. D(H  17,C   5,O   4,P   1)   -160.2667         0.020616   
     80. D(C   6,C   5,O   4,P   1)     79.7596         0.020616   
     81. D(O   7,C   6,C   5,H  17)    -54.2896         0.011403   
     82. D(O   7,C   6,C   5,O   4)     62.8318         0.011403   
     83. D(H  18,C   6,C   5,H  16)     66.1291         0.011403   
     84. D(O   7,C   6,C   5,H  16)   -175.0243         0.011403   
     85. D(C  12,C   6,C   5,H  17)     65.0602         0.011403   
     86. D(C  12,C   6,C   5,H  16)    -55.6745         0.011403   
     87. D(C  12,C   6,C   5,O   4)   -177.8184         0.011403   
     88. D(H  18,C   6,C   5,H  17)   -173.1363         0.011403   
     89. D(H  18,C   6,C   5,O   4)    -56.0148         0.011403   
     90. D(C   8,O   7,C   6,H  18)   -111.8257         0.018404   
     91. D(C   8,O   7,C   6,C  12)      6.6385         0.018404   
     92. D(C   8,O   7,C   6,C   5)    129.5225         0.018404   
     93. D(C  10,C   8,O   7,C   6)     17.3416         0.022299   
     94. D(O   9,C   8,O   7,C   6)   -100.7720         0.022299   
     95. D(H  19,C   8,O   7,C   6)    138.2723         0.022299   
     96. D(H  20,O   9,C   8,H  19)     75.8743         0.023695   
     97. D(H  20,O   9,C   8,O   7)    -43.4160         0.023695   
     98. D(H  20,O   9,C   8,C  10)   -160.7281         0.023695   
     99. D(O  11,C  10,C   8,O   7)     81.0393         0.010522   
    100. D(H  21,C  10,C   8,O   9)    -32.1566         0.010522   
    101. D(H  21,C  10,C   8,O   7)   -152.6780         0.010522   
    102. D(C  12,C  10,C   8,H  19)   -151.1120         0.010522   
    103. D(C  12,C  10,C   8,O   9)     86.9464         0.010522   
    104. D(C  12,C  10,C   8,O   7)    -33.5750         0.010522   
    105. D(O  11,C  10,C   8,H  19)    -36.4977         0.010522   
    106. D(H  21,C  10,C   8,H  19)     89.7850         0.010522   
    107. D(O  11,C  10,C   8,O   9)   -158.4393         0.010522   
    108. D(H  22,O  11,C  10,H  21)    -57.3162         0.022459   
    109. D(H  22,O  11,C  10,C  12)    178.6164         0.022459   
    110. D(H  22,O  11,C  10,C   8)     68.2505         0.022459   
    111. D(H  23,C  12,C  10,H  21)     37.4607         0.009981   
    112. D(H  23,C  12,C  10,C   8)    -80.2230         0.009981   
    113. D(O  13,C  12,C  10,H  21)    -82.4796         0.009981   
    114. D(O  13,C  12,C  10,O  11)     41.2177         0.009981   
    115. D(C   6,C  12,C  10,H  21)    153.2680         0.009981   
    116. D(C   6,C  12,C  10,O  11)    -83.0347         0.009981   
    117. D(C   6,C  12,C  10,C   8)     35.5843         0.009981   
    118. D(H  23,C  12,C   6,H  18)   -154.7926         0.009776   
    119. D(H  23,C  12,C   6,O   7)     88.0198         0.009776   
    120. D(H  23,C  12,C   6,C   5)    -34.2803         0.009776   
    121. D(O  13,C  12,C   6,H  18)    -34.3619         0.009776   
    122. D(O  13,C  12,C  10,C   8)    159.8367         0.009981   
    123. D(O  13,C  12,C   6,O   7)   -151.5494         0.009776   
    124. D(O  13,C  12,C   6,C   5)     86.1505         0.009776   
    125. D(C  10,C  12,C   6,H  18)     89.9485         0.009776   
    126. D(H  23,C  12,C  10,O  11)    161.1580         0.009981   
    127. D(C  10,C  12,C   6,O   7)    -27.2390         0.009776   
    128. D(C  10,C  12,C   6,C   5)   -149.5391         0.009776   
    129. D(H  24,O  13,C  12,H  23)   -169.6251         0.025841   
    130. D(H  24,O  13,C  12,C  10)    -48.5451         0.025841   
    131. D(H  24,O  13,C  12,C   6)     68.4029         0.025841   
    -----------------------------------------------------------------

Number of atoms                         .... 25
Number of degrees of freedom            .... 131

         *************************************************************
         *                GEOMETRY OPTIMIZATION CYCLE   1            *
         *************************************************************
---------------------------------
CARTESIAN COORDINATES (ANGSTROEM)
---------------------------------
  O     2.357836   -0.288836    2.079174
  P     3.072089    0.092419    0.859131
  O     3.628072    1.618092    0.760961
  O     4.414938   -0.752217    0.574109
  O     2.192152   -0.012940   -0.503492
  C     1.044723   -0.841127   -0.498183
  C    -0.141880   -0.145797    0.164583
  O    -0.530572    1.027388   -0.554962
  C    -1.912257    1.019598   -0.808845
  O    -2.198162    0.622770   -2.117384
  C    -2.534608   -0.009566    0.150319
  O    -2.740823    0.497547    1.443097
  C    -1.396178   -1.052529    0.231361
  O    -1.449719   -1.885419    1.337626
  H     2.970356    2.245537    1.106305
  H     4.893554   -0.403845   -0.187994
  H     1.234198   -1.771000    0.043873
  H     0.826287   -1.050275   -1.549684
  H     0.163544    0.155423    1.176529
  H    -2.285645    2.045285   -0.631108
  H    -1.576642    1.066094   -2.710867
  H    -3.455889   -0.426278   -0.277172
  H    -3.432690    1.168167    1.419726
  H    -1.436599   -1.694747   -0.654326
  H    -1.581055   -1.332315    2.120636

----------------------------
CARTESIAN COORDINATES (A.U.)
----------------------------
  NO LB    ZA    FRAG    MASS        X           Y           Z
   0 O   8.0000    0    15.999    4.455664   -0.545821    3.929069
   1 P  15.0000    0    30.974    5.805407    0.174647    1.623522
   2 O   8.0000    0    15.999    6.856062    3.057751    1.438008
   3 O   8.0000    0    15.999    8.343024   -1.421484    1.084909
   4 O   8.0000    0    15.999    4.142567   -0.024453   -0.951462
   5 C   6.0000    0    12.011    1.974240   -1.589500   -0.941429
   6 C   6.0000    0    12.011   -0.268114   -0.275516    0.311017
   7 O   8.0000    0    15.999   -1.002636    1.941482   -1.048726
   8 C   6.0000    0    12.011   -3.613642    1.926761   -1.528496
   9 O   8.0000    0    15.999   -4.153924    1.176865   -4.001276
  10 C   6.0000    0    12.011   -4.789715   -0.018077    0.284062
  11 O   8.0000    0    15.999   -5.179405    0.940228    2.727058
  12 C   6.0000    0    12.011   -2.638394   -1.988992    0.437209
  13 O   8.0000    0    15.999   -2.739572   -3.562926    2.527747
  14 H   1.0000    0     1.008    5.613159    4.243450    2.090613
  15 H   1.0000    0     1.008    9.247477   -0.763156   -0.355257
  16 H   1.0000    0     1.008    2.332296   -3.346705    0.082908
  17 H   1.0000    0     1.008    1.561456   -1.984732   -2.928478
  18 H   1.0000    0     1.008    0.309053    0.293707    2.223318
  19 H   1.0000    0     1.008   -4.319243    3.865029   -1.192621
  20 H   1.0000    0     1.008   -2.979422    2.014626   -5.122796
  21 H   1.0000    0     1.008   -6.530684   -0.805549   -0.523779
  22 H   1.0000    0     1.008   -6.486844    2.207516    2.682893
  23 H   1.0000    0     1.008   -2.714779   -3.202608   -1.236497
  24 H   1.0000    0     1.008   -2.987761   -2.517710    4.007421

      -----------------------------------------------------------      
     |                   =====================                   |     
     |                           x T B                           |     
     |                   =====================                   |     
     |                         S. Grimme                         |     
     |          Mulliken Center for Theoretical Chemistry        |     
     |                    University of Bonn                     |     
      -----------------------------------------------------------      

   * xtb version 6.5.1 (579679a) compiled by 'ehlert@majestix' on 2022-07-11

   xtb is free software: you can redistribute it and/or modify it under
   the terms of the GNU Lesser General Public License as published by
   the Free Software Foundation, either version 3 of the License, or
   (at your option) any later version.
   
   xtb is distributed in the hope that it will be useful,
   but WITHOUT ANY WARRANTY; without even the implied warranty of
   MERCHANTABILITY or FITNESS FOR A PARTICULAR PURPOSE.  See the
   GNU Lesser General Public License for more details.
   
   Cite this work as:
   * C. Bannwarth, E. Caldeweyher, S. Ehlert, A. Hansen, P. Pracht,
     J. Seibert, S. Spicher, S. Grimme, WIREs Comput. Mol. Sci., 2020, 11,
     e01493. DOI: 10.1002/wcms.1493
   
   for GFN2-xTB:
   * C. Bannwarth, S. Ehlert and S. Grimme., J. Chem. Theory Comput., 2019,
     15, 1652-1671. DOI: 10.1021/acs.jctc.8b01176
   for GFN1-xTB:
   * S. Grimme, C. Bannwarth, P. Shushkov, J. Chem. Theory Comput., 2017,
     13, 1989-2009. DOI: 10.1021/acs.jctc.7b00118
   for GFN0-xTB:
   * P. Pracht, E. Caldeweyher, S. Ehlert, S. Grimme, ChemRxiv, 2019, preprint.
     DOI: 10.26434/chemrxiv.8326202.v1
   for GFN-FF:
   * S. Spicher and S. Grimme, Angew. Chem. Int. Ed., 2020, 59, 15665-15673.
     DOI: 10.1002/anie.202004239
   
   for ALPB and GBSA implicit solvation:
   * S. Ehlert, M. Stahn, S. Spicher, S. Grimme, J. Chem. Theory Comput.,
     2021, 17, 4250-4261. DOI: 10.1021/acs.jctc.1c00471
   
   for DFT-D4:
   * E. Caldeweyher, C. Bannwarth and S. Grimme, J. Chem. Phys., 2017,
     147, 034112. DOI: 10.1063/1.4993215
   * E. Caldeweyher, S. Ehlert, A. Hansen, H. Neugebauer, S. Spicher,
     C. Bannwarth and S. Grimme, J. Chem. Phys., 2019, 150, 154122.
     DOI: 10.1063/1.5090222
   * E. Caldeweyher, J.-M. Mewes, S. Ehlert and S. Grimme, Phys. Chem. Chem. Phys.
     2020, 22, 8499-8512. DOI: 10.1039/D0CP00502A
   
   for sTDA-xTB:
   * S. Grimme and C. Bannwarth, J. Chem. Phys., 2016, 145, 054103.
     DOI: 10.1063/1.4959605
   
   in the mass-spec context:
   * V. Asgeirsson, C. Bauer and S. Grimme, Chem. Sci., 2017, 8, 4879.
     DOI: 10.1039/c7sc00601b
   * J. Koopman and S. Grimme, ACS Omega 2019, 4, 12, 15120-15133.
     DOI: 10.1021/acsomega.9b02011
   
   for metadynamics refer to:
   * S. Grimme, J. Chem. Theory Comput., 2019, 155, 2847-2862
     DOI: 10.1021/acs.jctc.9b00143
   
   for SPH calculations refer to:
   * S. Spicher and S. Grimme, J. Chem. Theory Comput., 2021, 17, 1701-1714
     DOI: 10.1021/acs.jctc.0c01306
   
   with help from (in alphabetical order)
   P. Atkinson, C. Bannwarth, F. Bohle, G. Brandenburg, E. Caldeweyher
   M. Checinski, S. Dohm, S. Ehlert, S. Ehrlich, I. Gerasimov, C. Hölzer
   A. Katbashev, J. Koopman, C. Lavigne, S. Lehtola, F. März, M. Müller,
   F. Musil, H. Neugebauer, J. Pisarek, C. Plett, P. Pracht, F. Pultar,
   J. Seibert, P. Shushkov, S. Spicher, M. Stahn, M. Steiner, T. Strunk,
   J. Stückrath, T. Rose, and J. Unsleber
   
 * started run on 2023/12/04 at 15:13:37.866     

           -------------------------------------------------
          |                Calculation Setup                |
           -------------------------------------------------

          program call               : otool_xtb /tmp/C00117_XTB.xyz --grad -c 0 -u 0 -P 1 --namespace /tmp/C00117 --input /tmp/C00117_XTB.input.tmp --acc 1.000000
          calculation namespace      : /tmp/C00117
          coordinate file            : /tmp/C00117_XTB.xyz
          omp threads                :                     1

   ID    Z sym.   atoms
    1    8 O      1, 3-5, 8, 10, 12, 14
    2   15 P      2
    3    6 C      6, 7, 9, 11, 13
    4    1 H      15-25

           -------------------------------------------------
          |                 G F N 2 - x T B                 |
           -------------------------------------------------

        Reference                      10.1021/acs.jctc.8b01176
      * Hamiltonian:
        H0-scaling (s, p, d)           1.850000    2.230000    2.230000
        zeta-weighting                 0.500000
      * Dispersion:
        s8                             2.700000
        a1                             0.520000
        a2                             5.000000
        s9                             5.000000
      * Repulsion:
        kExp                           1.500000    1.000000
        rExp                           1.000000
      * Coulomb:
        alpha                          2.000000
        third order                    shell-resolved
        anisotropic                    true
        a3                             3.000000
        a5                             4.000000
        cn-shift                       1.200000
        cn-exp                         4.000000
        max-rad                        5.000000

q/qsh data taken from xtbrestart
CAMM data taken from xtbrestart

          ...................................................
          :                      SETUP                      :
          :.................................................:
          :  # basis functions                  73          :
          :  # atomic orbitals                  72          :
          :  # shells                           40          :
          :  # electrons                        84          :
          :  max. iterations                   250          :
          :  Hamiltonian                  GFN2-xTB          :
          :  restarted?                       true          :
          :  GBSA solvation                  false          :
          :  PC potential                    false          :
          :  electronic temp.          300.0000000     K    :
          :  accuracy                    1.0000000          :
          :  -> integral cutoff          0.2500000E+02      :
          :  -> integral neglect         0.1000000E-07      :
          :  -> SCF convergence          0.1000000E-05 Eh   :
          :  -> wf. convergence          0.1000000E-03 e    :
          :  Broyden damping             0.4000000          :
          ...................................................

 iter      E             dE          RMSdq      gap      omega  full diag
   1    -51.8420657 -0.518421E+02  0.544E-01    9.19       0.0  T
   2    -51.8421943 -0.128577E-03  0.351E-01    9.21       1.0  T
   3    -51.8422058 -0.114920E-04  0.417E-02    9.21       1.0  T
   4    -51.8422116 -0.581635E-05  0.163E-02    9.22       1.2  T
   5    -51.8422119 -0.304853E-06  0.894E-03    9.21       2.2  T
   6    -51.8422120 -0.136342E-06  0.212E-03    9.21       9.4  T
   7    -51.8422120 -0.170741E-07  0.895E-04    9.21      22.3  T
   8    -51.8422120 -0.174832E-08  0.207E-04    9.21      96.5  T

   *** convergence criteria satisfied after 8 iterations ***

         #    Occupation            Energy/Eh            Energy/eV
      -------------------------------------------------------------
         1        2.0000           -0.7423368             -20.2000
       ...           ...                  ...                  ...
        36        2.0000           -0.4656114             -12.6699
        37        2.0000           -0.4512614             -12.2794
        38        2.0000           -0.4470032             -12.1636
        39        2.0000           -0.4420323             -12.0283
        40        2.0000           -0.4337578             -11.8031
        41        2.0000           -0.4197736             -11.4226
        42        2.0000           -0.4195173             -11.4156 (HOMO)
        43                         -0.0809150              -2.2018 (LUMO)
        44                         -0.0556561              -1.5145
        45                         -0.0412466              -1.1224
        46                         -0.0224348              -0.6105
        47                         -0.0005595              -0.0152
       ...                                ...                  ...
        72                          1.1996813              32.6450
      -------------------------------------------------------------
                  HL-Gap            0.3386022 Eh            9.2138 eV
             Fermi-level           -0.2502161 Eh           -6.8087 eV

 SCC (total)                   0 d,  0 h,  0 min,  0.026 sec
 SCC setup                      ...        0 min,  0.000 sec (  0.671%)
 Dispersion                     ...        0 min,  0.000 sec (  0.662%)
 classical contributions        ...        0 min,  0.000 sec (  0.151%)
 integral evaluation            ...        0 min,  0.004 sec ( 16.694%)
 iterations                     ...        0 min,  0.008 sec ( 31.175%)
 molecular gradient             ...        0 min,  0.013 sec ( 50.068%)
 printout                       ...        0 min,  0.000 sec (  0.518%)

         :::::::::::::::::::::::::::::::::::::::::::::::::::::
         ::                     SUMMARY                     ::
         :::::::::::::::::::::::::::::::::::::::::::::::::::::
         :: total energy             -51.519856496540 Eh    ::
         :: gradient norm              0.033389095332 Eh/a0 ::
         :: HOMO-LUMO gap              9.213835953545 eV    ::
         ::.................................................::
         :: SCC energy               -51.842212042699 Eh    ::
         :: -> isotropic ES            0.194417112312 Eh    ::
         :: -> anisotropic ES         -0.007202939359 Eh    ::
         :: -> anisotropic XC         -0.007296911460 Eh    ::
         :: -> dispersion             -0.021724346151 Eh    ::
         :: repulsion energy           0.322199130142 Eh    ::
         :: add. restraining           0.000000000000 Eh    ::
         :: total charge              -0.000000000000 e     ::
         :::::::::::::::::::::::::::::::::::::::::::::::::::::


Property printout bound to 'properties.out'

           -------------------------------------------------
          | TOTAL ENERGY              -51.519856496540 Eh   |
          | GRADIENT NORM               0.033389095332 Eh/α |
          | HOMO-LUMO GAP               9.213835953545 eV   |
           -------------------------------------------------

------------------------------------------------------------------------
 * finished run on 2023/12/04 at 15:13:37.902     
------------------------------------------------------------------------
 total:
 * wall-time:     0 d,  0 h,  0 min,  0.036 sec
 *  cpu-time:     0 d,  0 h,  0 min,  0.036 sec
 * ratio c/w:     0.991 speedup
 SCF:
 * wall-time:     0 d,  0 h,  0 min,  0.026 sec
 *  cpu-time:     0 d,  0 h,  0 min,  0.024 sec
 * ratio c/w:     0.931 speedup


-------------------------   --------------------
FINAL SINGLE POINT ENERGY       -51.519856496540
-------------------------   --------------------

------------------------------------------------------------------------------
                         ORCA GEOMETRY RELAXATION STEP
------------------------------------------------------------------------------

Reading the OPT-File                    .... done
Getting information on internals        .... done
Copying old internal coords+grads       .... done
Making the new internal coordinates     .... (new redundants).... done
Validating the new internal coordinates .... (new redundants).... done
Calculating the B-matrix                .... done
Calculating the G,G- and P matrices     .... done
Transforming gradient to internals      .... done
Projecting the internal gradient        .... done
Number of atoms                         ....  25
Number of internal coordinates          .... 131
Current Energy                          ....   -51.519856497 Eh
Current gradient norm                   ....     0.033389095 Eh/bohr
Maximum allowed component of the step   ....  0.300
Current trust radius                    ....  0.300
Evaluating the initial hessian          ....  (Almloef) done
Projecting the Hessian                  .... done
Forming the augmented Hessian           .... done
Diagonalizing the augmented Hessian     .... done
Last element of RFO vector              ....  0.996347366
Lowest eigenvalues of augmented Hessian:
 -0.001826538  0.010889472  0.011011690  0.011415926  0.012062140
Length of the computed step             ....  0.085705823
The final length of the internal step   ....  0.085705823
Converting the step to cartesian space:
 Initial RMS(Int)=    0.0074881525
Transforming coordinates:
 Iter   0:  RMS(Cart)=    0.0235360101 RMS(Int)=    0.0074694616
 Iter   1:  RMS(Cart)=    0.0002112549 RMS(Int)=    0.0000802162
 Iter   2:  RMS(Cart)=    0.0000049317 RMS(Int)=    0.0000016585
 Iter   3:  RMS(Cart)=    0.0000001230 RMS(Int)=    0.0000000449
 Iter   4:  RMS(Cart)=    0.0000000025 RMS(Int)=    0.0000000009
done
Storing new coordinates                 .... done

                                .--------------------.
          ----------------------|Geometry convergence|-------------------------
          Item                value                   Tolerance       Converged
          ---------------------------------------------------------------------
          RMS gradient        0.0030622571            0.0001000000      NO
          MAX gradient        0.0185052668            0.0003000000      NO
          RMS step            0.0074881525            0.0020000000      NO
          MAX step            0.0291376967            0.0040000000      NO
          ........................................................
          Max(Bonds)      0.0150      Max(Angles)    0.52
          Max(Dihed)        1.67      Max(Improp)    0.00
          ---------------------------------------------------------------------

The optimization has not yet converged - more geometry cycles are needed


    ---------------------------------------------------------------------------
                         Redundant Internal Coordinates
                            (Angstroem and degrees)

        Definition                    Value    dE/dq     Step     New-Value
    ----------------------------------------------------------------------------
     1. B(P   1,O   0)                1.4642  0.012082 -0.0045    1.4598   
     2. B(O   2,P   1)                1.6268  0.017729 -0.0119    1.6149   
     3. B(O   3,P   1)                1.6118  0.018505 -0.0117    1.6001   
     4. B(O   4,P   1)                1.6255  0.008979 -0.0060    1.6195   
     5. B(C   5,O   4)                1.4151  0.002071 -0.0021    1.4130   
     6. B(C   6,C   5)                1.5267  0.001552 -0.0022    1.5245   
     7. B(O   7,C   6)                1.4301  0.003196 -0.0036    1.4265   
     8. B(C   8,O   7)                1.4048  0.002553 -0.0027    1.4021   
     9. B(O   9,C   8)                1.3970  0.000925 -0.0009    1.3961   
    10. B(C  10,C   8)                1.5383  0.002560 -0.0037    1.5346   
    11. B(O  11,C  10)                1.4039  0.000402 -0.0004    1.4035   
    12. B(C  12,C  10)                1.5461  0.002560 -0.0036    1.5425   
    13. B(C  12,C   6)                1.5492  0.002767 -0.0040    1.5451   
    14. B(O  13,C  12)                1.3858  0.002353 -0.0022    1.3836   
    15. B(H  14,O   2)                0.9724  0.014179 -0.0150    0.9573   
    16. B(H  15,O   3)                0.9650  0.006476 -0.0067    0.9583   
    17. B(H  16,C   5)                1.0929  0.000234 -0.0003    1.0925   
    18. B(H  17,C   5)                1.0941  0.000535 -0.0008    1.0933   
    19. B(H  18,C   6)                1.0991  0.001293 -0.0020    1.0972   
    20. B(H  19,C   8)                1.1059  0.001059 -0.0016    1.1043   
    21. B(H  20,O   9)                0.9670  0.001613 -0.0017    0.9653   
    22. B(H  21,C  10)                1.0978  0.001646 -0.0025    1.0953   
    23. B(H  22,O  11)                0.9638  0.001114 -0.0011    0.9627   
    24. B(H  23,C  12)                1.0948  0.000345 -0.0005    1.0943   
    25. B(H  24,O  13)                0.9676  0.000184 -0.0002    0.9674   
    26. A(O   0,P   1,O   2)          117.46  0.000484   -0.01    117.45   
    27. A(O   2,P   1,O   4)          101.26  0.000579   -0.09    101.16   
    28. A(O   0,P   1,O   3)          114.66 -0.000553    0.08    114.74   
    29. A(O   0,P   1,O   4)          114.68 -0.003177    0.52    115.20   
    30. A(O   2,P   1,O   3)          101.31  0.000596   -0.22    101.08   
    31. A(O   3,P   1,O   4)          105.59  0.002792   -0.39    105.20   
    32. A(P   1,O   2,H  14)          110.64  0.002131   -0.30    110.35   
    33. A(P   1,O   3,H  15)          111.33  0.000938   -0.13    111.20   
    34. A(P   1,O   4,C   5)          118.28  0.001172   -0.14    118.13   
    35. A(H  16,C   5,H  17)          110.40 -0.000166    0.01    110.41   
    36. A(C   6,C   5,H  16)          107.88  0.000347   -0.08    107.80   
    37. A(O   4,C   5,H  16)          111.05  0.000471   -0.11    110.94   
    38. A(O   4,C   5,H  17)          105.67  0.000325   -0.01    105.66   
    39. A(C   6,C   5,H  17)          110.43  0.000048    0.03    110.46   
    40. A(O   4,C   5,C   6)          111.43 -0.001037    0.17    111.59   
    41. A(C   5,C   6,C  12)          112.42  0.000227   -0.07    112.36   
    42. A(C   5,C   6,H  18)          107.97 -0.000312    0.11    108.08   
    43. A(C  12,C   6,H  18)          110.23  0.000143   -0.06    110.17   
    44. A(C   5,C   6,O   7)          111.50  0.000021   -0.01    111.49   
    45. A(O   7,C   6,H  18)          108.30 -0.000006    0.02    108.31   
    46. A(O   7,C   6,C  12)          106.37 -0.000070    0.00    106.37   
    47. A(C   6,O   7,C   8)          110.71 -0.000069   -0.02    110.70   
    48. A(O   9,C   8,C  10)          108.13  0.000056   -0.01    108.13   
    49. A(O   7,C   8,C  10)          106.79 -0.000037   -0.03    106.77   
    50. A(O   7,C   8,O   9)          111.85  0.000043   -0.01    111.84   
    51. A(C  10,C   8,H  19)          112.56  0.000154   -0.03    112.53   
    52. A(O   7,C   8,H  19)          107.33  0.000101   -0.04    107.29   
    53. A(O   9,C   8,H  19)          110.18 -0.000304    0.11    110.29   
    54. A(C   8,O   9,H  20)          108.25  0.000285   -0.05    108.20   
    55. A(C   8,C  10,O  11)          113.07 -0.000055    0.03    113.11   
    56. A(C  12,C  10,H  21)          112.48  0.000024   -0.05    112.43   
    57. A(C   8,C  10,H  21)          110.53 -0.000061   -0.04    110.49   
    58. A(O  11,C  10,C  12)          107.67 -0.000197    0.05    107.72   
    59. A(C   8,C  10,C  12)          100.73  0.000315   -0.04    100.68   
    60. A(O  11,C  10,H  21)          111.87 -0.000002    0.04    111.91   
    61. A(C  10,O  11,H  22)          109.54 -0.000013    0.00    109.54   
    62. A(O  13,C  12,H  23)          106.97 -0.000144    0.07    107.03   
    63. A(C  10,C  12,H  23)          109.03 -0.000096    0.05    109.09   
    64. A(C   6,C  12,H  23)          109.78 -0.000021    0.04    109.82   
    65. A(C   6,C  12,O  13)          114.68  0.000172   -0.12    114.56   
    66. A(C   6,C  12,C  10)          101.48 -0.000008    0.03    101.51   
    67. A(C  10,C  12,O  13)          114.76  0.000093   -0.06    114.70   
    68. A(C  12,O  13,H  24)          107.92  0.000121   -0.02    107.90   
    69. D(H  14,O   2,P   1,O   3)   -167.35  0.001148   -0.47   -167.82   
    70. D(H  14,O   2,P   1,O   4)     84.03 -0.002129    0.03     84.06   
    71. D(H  14,O   2,P   1,O   0)    -41.65  0.001203   -0.55    -42.20   
    72. D(H  15,O   3,P   1,O   4)     58.57  0.001270   -0.05     58.52   
    73. D(H  15,O   3,P   1,O   2)    -46.65 -0.000348    0.24    -46.41   
    74. D(H  15,O   3,P   1,O   0)   -174.19 -0.001057    0.37   -173.82   
    75. D(C   5,O   4,P   1,O   2)   -148.16  0.000506    1.29   -146.87   
    76. D(C   5,O   4,P   1,O   3)    106.59 -0.001123    1.67    108.26   
    77. D(C   5,O   4,P   1,O   0)    -20.64 -0.000382    1.51    -19.13   
    78. D(H  16,C   5,O   4,P   1)    -40.53  0.000504   -1.12    -41.65   
    79. D(H  17,C   5,O   4,P   1)   -160.27  0.000251   -1.06   -161.33   
    80. D(C   6,C   5,O   4,P   1)     79.76  0.000564   -1.19     78.57   
    81. D(O   7,C   6,C   5,H  17)    -54.29  0.000129   -0.58    -54.87   
    82. D(O   7,C   6,C   5,O   4)     62.83 -0.000080   -0.47     62.36   
    83. D(H  18,C   6,C   5,H  16)     66.13  0.000276   -0.65     65.48   
    84. D(O   7,C   6,C   5,H  16)   -175.02  0.000086   -0.56   -175.59   
    85. D(C  12,C   6,C   5,H  17)     65.06  0.000209   -0.63     64.43   
    86. D(C  12,C   6,C   5,H  16)    -55.67  0.000166   -0.61    -56.28   
    87. D(C  12,C   6,C   5,O   4)   -177.82 -0.000000   -0.52   -178.34   
    88. D(H  18,C   6,C   5,H  17)   -173.14  0.000319   -0.67   -173.80   
    89. D(H  18,C   6,C   5,O   4)    -56.01  0.000110   -0.56    -56.57   
    90. D(C   8,O   7,C   6,H  18)   -111.83 -0.000106   -0.10   -111.92   
    91. D(C   8,O   7,C   6,C  12)      6.64  0.000020   -0.15      6.49   
    92. D(C   8,O   7,C   6,C   5)    129.52  0.000267   -0.23    129.29   
    93. D(C  10,C   8,O   7,C   6)     17.34 -0.000170    0.18     17.52   
    94. D(O   9,C   8,O   7,C   6)   -100.77 -0.000239    0.21   -100.56   
    95. D(H  19,C   8,O   7,C   6)    138.27  0.000045    0.11    138.38   
    96. D(H  20,O   9,C   8,H  19)     75.87  0.000075   -0.24     75.64   
    97. D(H  20,O   9,C   8,O   7)    -43.42  0.000123   -0.25    -43.66   
    98. D(H  20,O   9,C   8,C  10)   -160.73  0.000109   -0.20   -160.93   
    99. D(O  11,C  10,C   8,O   7)     81.04  0.000056   -0.07     80.97   
   100. D(H  21,C  10,C   8,O   9)    -32.16  0.000022   -0.06    -32.21   
   101. D(H  21,C  10,C   8,O   7)   -152.68 -0.000038   -0.03   -152.70   
   102. D(C  12,C  10,C   8,H  19)   -151.11 -0.000054   -0.03   -151.14   
   103. D(C  12,C  10,C   8,O   9)     86.95  0.000192   -0.15     86.80   
   104. D(C  12,C  10,C   8,O   7)    -33.58  0.000131   -0.12    -33.69   
   105. D(O  11,C  10,C   8,H  19)    -36.50 -0.000129    0.02    -36.48   
   106. D(H  21,C  10,C   8,H  19)     89.78 -0.000224    0.06     89.85   
   107. D(O  11,C  10,C   8,O   9)   -158.44  0.000117   -0.10   -158.54   
   108. D(H  22,O  11,C  10,H  21)    -57.32 -0.000042    0.11    -57.20   
   109. D(H  22,O  11,C  10,C  12)    178.62  0.000067    0.11    178.73   
   110. D(H  22,O  11,C  10,C   8)     68.25 -0.000170    0.12     68.37   
   111. D(H  23,C  12,C  10,H  21)     37.46  0.000103   -0.13     37.33   
   112. D(H  23,C  12,C  10,C   8)    -80.22 -0.000015   -0.03    -80.26   
   113. D(O  13,C  12,C  10,H  21)    -82.48  0.000296   -0.21    -82.69   
   114. D(O  13,C  12,C  10,O  11)     41.22  0.000170   -0.15     41.07   
   115. D(C   6,C  12,C  10,H  21)    153.27  0.000037   -0.05    153.22   
   116. D(C   6,C  12,C  10,O  11)    -83.03 -0.000089    0.01    -83.03   
   117. D(C   6,C  12,C  10,C   8)     35.58 -0.000081    0.04     35.63   
   118. D(H  23,C  12,C   6,H  18)   -154.79  0.000042    0.14   -154.66   
   119. D(H  23,C  12,C   6,O   7)     88.02  0.000014    0.14     88.16   
   120. D(H  23,C  12,C   6,C   5)    -34.28 -0.000103    0.19    -34.09   
   121. D(O  13,C  12,C   6,H  18)    -34.36 -0.000042    0.17    -34.19   
   122. D(O  13,C  12,C  10,C   8)    159.84  0.000178   -0.11    159.72   
   123. D(O  13,C  12,C   6,O   7)   -151.55 -0.000070    0.18   -151.37   
   124. D(O  13,C  12,C   6,C   5)     86.15 -0.000187    0.22     86.37   
   125. D(C  10,C  12,C   6,H  18)     89.95  0.000163    0.05     90.00   
   126. D(H  23,C  12,C  10,O  11)    161.16 -0.000024   -0.07    161.09   
   127. D(C  10,C  12,C   6,O   7)    -27.24  0.000135    0.05    -27.18   
   128. D(C  10,C  12,C   6,C   5)   -149.54  0.000018    0.10   -149.44   
   129. D(H  24,O  13,C  12,H  23)   -169.63 -0.000011    0.11   -169.52   
   130. D(H  24,O  13,C  12,C  10)    -48.55 -0.000179    0.18    -48.36   
   131. D(H  24,O  13,C  12,C   6)     68.40  0.000010    0.09     68.49   
    ----------------------------------------------------------------------------

         *************************************************************
         *                GEOMETRY OPTIMIZATION CYCLE   2            *
         *************************************************************
---------------------------------
CARTESIAN COORDINATES (ANGSTROEM)
---------------------------------
  O     2.353953   -0.290777    2.073911
  P     3.057853    0.092870    0.853945
  O     3.589822    1.613993    0.748453
  O     4.404550   -0.724134    0.572668
  O     2.192873   -0.032023   -0.509477
  C     1.042727   -0.852661   -0.495976
  C    -0.137668   -0.153399    0.168758
  O    -0.517691    1.022223   -0.544230
  C    -1.895894    1.021623   -0.802123
  O    -2.178998    0.628398   -2.111404
  C    -2.524182   -0.004119    0.150884
  O    -2.730690    0.500041    1.444337
  C    -1.393974   -1.050839    0.229877
  O    -1.452989   -1.883190    1.333533
  H     2.928730    2.221597    1.080533
  H     4.873333   -0.369484   -0.184192
  H     1.231416   -1.780422    0.049268
  H     0.819628   -1.065429   -1.544942
  H     0.166830    0.140597    1.180986
  H    -2.263794    2.047164   -0.622319
  H    -1.556544    1.072195   -2.700809
  H    -3.444139   -0.414099   -0.279605
  H    -3.419510    1.172178    1.421768
  H    -1.436264   -1.690704   -0.656792
  H    -1.584350   -1.330171    2.116362

----------------------------
CARTESIAN COORDINATES (A.U.)
----------------------------
  NO LB    ZA    FRAG    MASS        X           Y           Z
   0 O   8.0000    0    15.999    4.448327   -0.549488    3.919124
   1 P  15.0000    0    30.974    5.778506    0.175499    1.613722
   2 O   8.0000    0    15.999    6.783781    3.050004    1.414371
   3 O   8.0000    0    15.999    8.323393   -1.368415    1.082186
   4 O   8.0000    0    15.999    4.143929   -0.060515   -0.962771
   5 C   6.0000    0    12.011    1.970469   -1.611296   -0.937259
   6 C   6.0000    0    12.011   -0.260155   -0.289882    0.318906
   7 O   8.0000    0    15.999   -0.978295    1.931722   -1.028446
   8 C   6.0000    0    12.011   -3.582720    1.930588   -1.515793
   9 O   8.0000    0    15.999   -4.117710    1.187500   -3.989976
  10 C   6.0000    0    12.011   -4.770012   -0.007784    0.285130
  11 O   8.0000    0    15.999   -5.160256    0.944941    2.729402
  12 C   6.0000    0    12.011   -2.634229   -1.985798    0.434404
  13 O   8.0000    0    15.999   -2.745752   -3.558713    2.520012
  14 H   1.0000    0     1.008    5.534497    4.198210    2.041911
  15 H   1.0000    0     1.008    9.209265   -0.698223   -0.348072
  16 H   1.0000    0     1.008    2.327040   -3.364510    0.093102
  17 H   1.0000    0     1.008    1.548872   -2.013369   -2.919517
  18 H   1.0000    0     1.008    0.315263    0.265690    2.231739
  19 H   1.0000    0     1.008   -4.277950    3.868580   -1.176013
  20 H   1.0000    0     1.008   -2.941442    2.026155   -5.103789
  21 H   1.0000    0     1.008   -6.508479   -0.782534   -0.528376
  22 H   1.0000    0     1.008   -6.461937    2.215095    2.686752
  23 H   1.0000    0     1.008   -2.714145   -3.194967   -1.241157
  24 H   1.0000    0     1.008   -2.993988   -2.513659    3.999344

      -----------------------------------------------------------      
     |                   =====================                   |     
     |                           x T B                           |     
     |                   =====================                   |     
     |                         S. Grimme                         |     
     |          Mulliken Center for Theoretical Chemistry        |     
     |                    University of Bonn                     |     
      -----------------------------------------------------------      

   * xtb version 6.5.1 (579679a) compiled by 'ehlert@majestix' on 2022-07-11

   xtb is free software: you can redistribute it and/or modify it under
   the terms of the GNU Lesser General Public License as published by
   the Free Software Foundation, either version 3 of the License, or
   (at your option) any later version.
   
   xtb is distributed in the hope that it will be useful,
   but WITHOUT ANY WARRANTY; without even the implied warranty of
   MERCHANTABILITY or FITNESS FOR A PARTICULAR PURPOSE.  See the
   GNU Lesser General Public License for more details.
   
   Cite this work as:
   * C. Bannwarth, E. Caldeweyher, S. Ehlert, A. Hansen, P. Pracht,
     J. Seibert, S. Spicher, S. Grimme, WIREs Comput. Mol. Sci., 2020, 11,
     e01493. DOI: 10.1002/wcms.1493
   
   for GFN2-xTB:
   * C. Bannwarth, S. Ehlert and S. Grimme., J. Chem. Theory Comput., 2019,
     15, 1652-1671. DOI: 10.1021/acs.jctc.8b01176
   for GFN1-xTB:
   * S. Grimme, C. Bannwarth, P. Shushkov, J. Chem. Theory Comput., 2017,
     13, 1989-2009. DOI: 10.1021/acs.jctc.7b00118
   for GFN0-xTB:
   * P. Pracht, E. Caldeweyher, S. Ehlert, S. Grimme, ChemRxiv, 2019, preprint.
     DOI: 10.26434/chemrxiv.8326202.v1
   for GFN-FF:
   * S. Spicher and S. Grimme, Angew. Chem. Int. Ed., 2020, 59, 15665-15673.
     DOI: 10.1002/anie.202004239
   
   for ALPB and GBSA implicit solvation:
   * S. Ehlert, M. Stahn, S. Spicher, S. Grimme, J. Chem. Theory Comput.,
     2021, 17, 4250-4261. DOI: 10.1021/acs.jctc.1c00471
   
   for DFT-D4:
   * E. Caldeweyher, C. Bannwarth and S. Grimme, J. Chem. Phys., 2017,
     147, 034112. DOI: 10.1063/1.4993215
   * E. Caldeweyher, S. Ehlert, A. Hansen, H. Neugebauer, S. Spicher,
     C. Bannwarth and S. Grimme, J. Chem. Phys., 2019, 150, 154122.
     DOI: 10.1063/1.5090222
   * E. Caldeweyher, J.-M. Mewes, S. Ehlert and S. Grimme, Phys. Chem. Chem. Phys.
     2020, 22, 8499-8512. DOI: 10.1039/D0CP00502A
   
   for sTDA-xTB:
   * S. Grimme and C. Bannwarth, J. Chem. Phys., 2016, 145, 054103.
     DOI: 10.1063/1.4959605
   
   in the mass-spec context:
   * V. Asgeirsson, C. Bauer and S. Grimme, Chem. Sci., 2017, 8, 4879.
     DOI: 10.1039/c7sc00601b
   * J. Koopman and S. Grimme, ACS Omega 2019, 4, 12, 15120-15133.
     DOI: 10.1021/acsomega.9b02011
   
   for metadynamics refer to:
   * S. Grimme, J. Chem. Theory Comput., 2019, 155, 2847-2862
     DOI: 10.1021/acs.jctc.9b00143
   
   for SPH calculations refer to:
   * S. Spicher and S. Grimme, J. Chem. Theory Comput., 2021, 17, 1701-1714
     DOI: 10.1021/acs.jctc.0c01306
   
   with help from (in alphabetical order)
   P. Atkinson, C. Bannwarth, F. Bohle, G. Brandenburg, E. Caldeweyher
   M. Checinski, S. Dohm, S. Ehlert, S. Ehrlich, I. Gerasimov, C. Hölzer
   A. Katbashev, J. Koopman, C. Lavigne, S. Lehtola, F. März, M. Müller,
   F. Musil, H. Neugebauer, J. Pisarek, C. Plett, P. Pracht, F. Pultar,
   J. Seibert, P. Shushkov, S. Spicher, M. Stahn, M. Steiner, T. Strunk,
   J. Stückrath, T. Rose, and J. Unsleber
   
 * started run on 2023/12/04 at 15:13:37.985     

           -------------------------------------------------
          |                Calculation Setup                |
           -------------------------------------------------

          program call               : otool_xtb /tmp/C00117_XTB.xyz --grad -c 0 -u 0 -P 1 --namespace /tmp/C00117 --input /tmp/C00117_XTB.input.tmp --acc 1.000000
          calculation namespace      : /tmp/C00117
          coordinate file            : /tmp/C00117_XTB.xyz
          omp threads                :                     1

   ID    Z sym.   atoms
    1    8 O      1, 3-5, 8, 10, 12, 14
    2   15 P      2
    3    6 C      6, 7, 9, 11, 13
    4    1 H      15-25

           -------------------------------------------------
          |                 G F N 2 - x T B                 |
           -------------------------------------------------

        Reference                      10.1021/acs.jctc.8b01176
      * Hamiltonian:
        H0-scaling (s, p, d)           1.850000    2.230000    2.230000
        zeta-weighting                 0.500000
      * Dispersion:
        s8                             2.700000
        a1                             0.520000
        a2                             5.000000
        s9                             5.000000
      * Repulsion:
        kExp                           1.500000    1.000000
        rExp                           1.000000
      * Coulomb:
        alpha                          2.000000
        third order                    shell-resolved
        anisotropic                    true
        a3                             3.000000
        a5                             4.000000
        cn-shift                       1.200000
        cn-exp                         4.000000
        max-rad                        5.000000

q/qsh data taken from xtbrestart
CAMM data taken from xtbrestart

          ...................................................
          :                      SETUP                      :
          :.................................................:
          :  # basis functions                  73          :
          :  # atomic orbitals                  72          :
          :  # shells                           40          :
          :  # electrons                        84          :
          :  max. iterations                   250          :
          :  Hamiltonian                  GFN2-xTB          :
          :  restarted?                       true          :
          :  GBSA solvation                  false          :
          :  PC potential                    false          :
          :  electronic temp.          300.0000000     K    :
          :  accuracy                    1.0000000          :
          :  -> integral cutoff          0.2500000E+02      :
          :  -> integral neglect         0.1000000E-07      :
          :  -> SCF convergence          0.1000000E-05 Eh   :
          :  -> wf. convergence          0.1000000E-03 e    :
          :  Broyden damping             0.4000000          :
          ...................................................

 iter      E             dE          RMSdq      gap      omega  full diag
   1    -51.8532729 -0.518533E+02  0.112E-01    9.49       0.0  T
   2    -51.8532780 -0.506941E-05  0.720E-02    9.49       1.0  T
   3    -51.8532782 -0.171776E-06  0.887E-03    9.49       2.3  T
   4    -51.8532786 -0.435400E-06  0.302E-03    9.49       6.6  T
   5    -51.8532786 -0.116943E-07  0.108E-03    9.49      18.5  T
   6    -51.8532786 -0.182506E-08  0.395E-04    9.49      50.7  T
   7    -51.8532786 -0.536239E-09  0.138E-04    9.49     145.1  T

   *** convergence criteria satisfied after 7 iterations ***

         #    Occupation            Energy/Eh            Energy/eV
      -------------------------------------------------------------
         1        2.0000           -0.7440341             -20.2462
       ...           ...                  ...                  ...
        36        2.0000           -0.4654819             -12.6664
        37        2.0000           -0.4515527             -12.2874
        38        2.0000           -0.4470075             -12.1637
        39        2.0000           -0.4422551             -12.0344
        40        2.0000           -0.4340427             -11.8109
        41        2.0000           -0.4197250             -11.4213
        42        2.0000           -0.4195440             -11.4164 (HOMO)
        43                         -0.0708822              -1.9288 (LUMO)
        44                         -0.0486642              -1.3242
        45                         -0.0311384              -0.8473
        46                         -0.0190056              -0.5172
        47                          0.0011219               0.0305
       ...                                ...                  ...
        72                          1.2183745              33.1537
      -------------------------------------------------------------
                  HL-Gap            0.3486618 Eh            9.4876 eV
             Fermi-level           -0.2452131 Eh           -6.6726 eV

 SCC (total)                   0 d,  0 h,  0 min,  0.025 sec
 SCC setup                      ...        0 min,  0.000 sec (  0.666%)
 Dispersion                     ...        0 min,  0.000 sec (  0.701%)
 classical contributions        ...        0 min,  0.000 sec (  0.156%)
 integral evaluation            ...        0 min,  0.004 sec ( 17.522%)
 iterations                     ...        0 min,  0.007 sec ( 28.811%)
 molecular gradient             ...        0 min,  0.013 sec ( 51.512%)
 printout                       ...        0 min,  0.000 sec (  0.573%)

         :::::::::::::::::::::::::::::::::::::::::::::::::::::
         ::                     SUMMARY                     ::
         :::::::::::::::::::::::::::::::::::::::::::::::::::::
         :: total energy             -51.521161761832 Eh    ::
         :: gradient norm              0.018231389078 Eh/a0 ::
         :: HOMO-LUMO gap              9.487569299194 eV    ::
         ::.................................................::
         :: SCC energy               -51.853278621500 Eh    ::
         :: -> isotropic ES            0.194452136489 Eh    ::
         :: -> anisotropic ES         -0.007805432793 Eh    ::
         :: -> anisotropic XC         -0.007647986096 Eh    ::
         :: -> dispersion             -0.021815425219 Eh    ::
         :: repulsion energy           0.331957926060 Eh    ::
         :: add. restraining           0.000000000000 Eh    ::
         :: total charge               0.000000000000 e     ::
         :::::::::::::::::::::::::::::::::::::::::::::::::::::


Property printout bound to 'properties.out'

           -------------------------------------------------
          | TOTAL ENERGY              -51.521161761832 Eh   |
          | GRADIENT NORM               0.018231389078 Eh/α |
          | HOMO-LUMO GAP               9.487569299194 eV   |
           -------------------------------------------------

------------------------------------------------------------------------
 * finished run on 2023/12/04 at 15:13:38.021     
------------------------------------------------------------------------
 total:
 * wall-time:     0 d,  0 h,  0 min,  0.036 sec
 *  cpu-time:     0 d,  0 h,  0 min,  0.036 sec
 * ratio c/w:     1.004 speedup
 SCF:
 * wall-time:     0 d,  0 h,  0 min,  0.025 sec
 *  cpu-time:     0 d,  0 h,  0 min,  0.024 sec
 * ratio c/w:     0.957 speedup


-------------------------   --------------------
FINAL SINGLE POINT ENERGY       -51.521161761830
-------------------------   --------------------

------------------------------------------------------------------------------
                         ORCA GEOMETRY RELAXATION STEP
------------------------------------------------------------------------------

Reading the OPT-File                    .... done
Getting information on internals        .... done
Copying old internal coords+grads       .... done
Making the new internal coordinates     .... (new redundants).... done
Validating the new internal coordinates .... (new redundants).... done
Calculating the B-matrix                .... done
Calculating the G,G- and P matrices     .... done
Transforming gradient to internals      .... done
Projecting the internal gradient        .... done
Number of atoms                         ....  25
Number of internal coordinates          .... 131
Current Energy                          ....   -51.521161762 Eh
Current gradient norm                   ....     0.018231389 Eh/bohr
Maximum allowed component of the step   ....  0.300
Current trust radius                    ....  0.300
Updating the Hessian (BFGS)             .... done
Forming the augmented Hessian           .... done
Diagonalizing the augmented Hessian     .... done
Last element of RFO vector              ....  0.991272130
Lowest eigenvalues of augmented Hessian:
 -0.000923519  0.010572238  0.010893181  0.011324548  0.012063993
Length of the computed step             ....  0.132992318
The final length of the internal step   ....  0.132992318
Converting the step to cartesian space:
 Initial RMS(Int)=    0.0116195928
Transforming coordinates:
 Iter   0:  RMS(Cart)=    0.0418802652 RMS(Int)=    0.0115846779
 Iter   1:  RMS(Cart)=    0.0008380771 RMS(Int)=    0.0003028703
 Iter   2:  RMS(Cart)=    0.0000327393 RMS(Int)=    0.0000086379
 Iter   3:  RMS(Cart)=    0.0000014375 RMS(Int)=    0.0000005633
 Iter   4:  RMS(Cart)=    0.0000000553 RMS(Int)=    0.0000000146
done
Storing new coordinates                 .... done

                                .--------------------.
          ----------------------|Geometry convergence|-------------------------
          Item                value                   Tolerance       Converged
          ---------------------------------------------------------------------
          Energy change      -0.0013052653            0.0000050000      NO
          RMS gradient        0.0015506092            0.0001000000      NO
          MAX gradient        0.0113479923            0.0003000000      NO
          RMS step            0.0116195928            0.0020000000      NO
          MAX step            0.0545943506            0.0040000000      NO
          ........................................................
          Max(Bonds)      0.0147      Max(Angles)    0.59
          Max(Dihed)        3.13      Max(Improp)    0.00
          ---------------------------------------------------------------------

The optimization has not yet converged - more geometry cycles are needed


    ---------------------------------------------------------------------------
                         Redundant Internal Coordinates
                            (Angstroem and degrees)

        Definition                    Value    dE/dq     Step     New-Value
    ----------------------------------------------------------------------------
     1. B(P   1,O   0)                1.4598  0.006089 -0.0047    1.4550   
     2. B(O   2,P   1)                1.6149  0.010505 -0.0145    1.6005   
     3. B(O   3,P   1)                1.6001  0.011348 -0.0147    1.5854   
     4. B(O   4,P   1)                1.6195  0.004565 -0.0064    1.6131   
     5. B(C   5,O   4)                1.4130  0.000039 -0.0005    1.4125   
     6. B(C   6,C   5)                1.5245  0.000001 -0.0004    1.5241   
     7. B(O   7,C   6)                1.4265  0.000598 -0.0019    1.4246   
     8. B(C   8,O   7)                1.4021  0.000434 -0.0014    1.4007   
     9. B(O   9,C   8)                1.3961 -0.000067 -0.0001    1.3960   
    10. B(C  10,C   8)                1.5346  0.000219 -0.0013    1.5333   
    11. B(O  11,C  10)                1.4035 -0.000204  0.0003    1.4038   
    12. B(C  12,C  10)                1.5425  0.000186 -0.0011    1.5414   
    13. B(C  12,C   6)                1.5451  0.000192 -0.0012    1.5440   
    14. B(O  13,C  12)                1.3836  0.000150 -0.0007    1.3829   
    15. B(H  14,O   2)                0.9573  0.001492 -0.0057    0.9517   
    16. B(H  15,O   3)                0.9583  0.000747 -0.0026    0.9557   
    17. B(H  16,C   5)                1.0925 -0.000149  0.0003    1.0928   
    18. B(H  17,C   5)                1.0933 -0.000024 -0.0001    1.0932   
    19. B(H  18,C   6)                1.0972  0.000042 -0.0005    1.0967   
    20. B(H  19,C   8)                1.1043 -0.000032 -0.0002    1.1040   
    21. B(H  20,O   9)                0.9653  0.000158 -0.0006    0.9647   
    22. B(H  21,C  10)                1.0953  0.000053 -0.0006    1.0947   
    23. B(H  22,O  11)                0.9627  0.000127 -0.0004    0.9622   
    24. B(H  23,C  12)                1.0943 -0.000093  0.0001    1.0944   
    25. B(H  24,O  13)                0.9674 -0.000061  0.0001    0.9675   
    26. A(O   0,P   1,O   2)          117.45  0.000793   -0.13    117.32   
    27. A(O   2,P   1,O   4)          101.16  0.000106   -0.04    101.12   
    28. A(O   0,P   1,O   3)          114.74 -0.000254    0.07    114.81   
    29. A(O   0,P   1,O   4)          115.20 -0.001878    0.59    115.79   
    30. A(O   2,P   1,O   3)          101.08 -0.000363   -0.07    101.01   
    31. A(O   3,P   1,O   4)          105.20  0.001928   -0.53    104.67   
    32. A(P   1,O   2,H  14)          110.35  0.000473   -0.17    110.17   
    33. A(P   1,O   3,H  15)          111.20  0.000051   -0.04    111.16   
    34. A(P   1,O   4,C   5)          118.13 -0.000909    0.17    118.30   
    35. A(H  16,C   5,H  17)          110.41 -0.000070   -0.05    110.37   
    36. A(C   6,C   5,H  16)          107.80  0.000154   -0.06    107.73   
    37. A(O   4,C   5,H  16)          110.94  0.000338   -0.11    110.83   
    38. A(O   4,C   5,H  17)          105.66  0.000209   -0.02    105.64   
    39. A(C   6,C   5,H  17)          110.46  0.000216   -0.05    110.42   
    40. A(O   4,C   5,C   6)          111.59 -0.000849    0.29    111.88   
    41. A(C   5,C   6,C  12)          112.36  0.000067   -0.05    112.31   
    42. A(C   5,C   6,H  18)          108.08 -0.000144    0.09    108.17   
    43. A(C  12,C   6,H  18)          110.17  0.000136   -0.11    110.06   
    44. A(C   5,C   6,O   7)          111.49  0.000003    0.02    111.51   
    45. A(O   7,C   6,H  18)          108.31 -0.000004    0.01    108.33   
    46. A(O   7,C   6,C  12)          106.37 -0.000054    0.04    106.41   
    47. A(C   6,O   7,C   8)          110.70 -0.000089    0.01    110.71   
    48. A(O   9,C   8,C  10)          108.13  0.000033   -0.01    108.12   
    49. A(O   7,C   8,C  10)          106.77  0.000011   -0.03    106.74   
    50. A(O   7,C   8,O   9)          111.84 -0.000030    0.01    111.84   
    51. A(C  10,C   8,H  19)          112.53  0.000025   -0.01    112.52   
    52. A(O   7,C   8,H  19)          107.29  0.000049   -0.04    107.24   
    53. A(O   9,C   8,H  19)          110.29 -0.000087    0.08    110.37   
    54. A(C   8,O   9,H  20)          108.20  0.000006   -0.01    108.19   
    55. A(C   8,C  10,O  11)          113.11  0.000012    0.01    113.12   
    56. A(C  12,C  10,H  21)          112.43  0.000016   -0.03    112.40   
    57. A(C   8,C  10,H  21)          110.49 -0.000037   -0.02    110.47   
    58. A(O  11,C  10,C  12)          107.72 -0.000063    0.04    107.76   
    59. A(C   8,C  10,C  12)          100.68  0.000064   -0.01    100.67   
    60. A(O  11,C  10,H  21)          111.91  0.000012    0.01    111.92   
    61. A(C  10,O  11,H  22)          109.54 -0.000066    0.02    109.56   
    62. A(O  13,C  12,H  23)          107.03  0.000015    0.01    107.05   
    63. A(C  10,C  12,H  23)          109.09 -0.000016    0.01    109.09   
    64. A(C   6,C  12,H  23)          109.82 -0.000024    0.02    109.83   
    65. A(C   6,C  12,O  13)          114.56 -0.000009   -0.05    114.51   
    66. A(C   6,C  12,C  10)          101.51  0.000086    0.02    101.53   
    67. A(C  10,C  12,O  13)          114.70 -0.000053   -0.01    114.69   
    68. A(C  12,O  13,H  24)          107.90 -0.000058    0.01    107.91   
    69. D(H  14,O   2,P   1,O   3)   -167.82  0.000754   -0.69   -168.51   
    70. D(H  14,O   2,P   1,O   4)     84.06 -0.001210   -0.10     83.96   
    71. D(H  14,O   2,P   1,O   0)    -42.20  0.000631   -0.74    -42.94   
    72. D(H  15,O   3,P   1,O   4)     58.52  0.000538   -0.16     58.35   
    73. D(H  15,O   3,P   1,O   2)    -46.41  0.000015    0.06    -46.36   
    74. D(H  15,O   3,P   1,O   0)   -173.82 -0.000562    0.23   -173.59   
    75. D(C   5,O   4,P   1,O   2)   -146.87 -0.000269    2.89   -143.99   
    76. D(C   5,O   4,P   1,O   3)    108.26 -0.000448    3.13    111.39   
    77. D(C   5,O   4,P   1,O   0)    -19.13 -0.000340    3.05    -16.08   
    78. D(H  16,C   5,O   4,P   1)    -41.65  0.000451   -1.70    -43.35   
    79. D(H  17,C   5,O   4,P   1)   -161.33  0.000227   -1.57   -162.90   
    80. D(C   6,C   5,O   4,P   1)     78.57  0.000306   -1.66     76.91   
    81. D(O   7,C   6,C   5,H  17)    -54.87  0.000203   -1.20    -56.08   
    82. D(O   7,C   6,C   5,O   4)     62.36  0.000071   -1.08     61.28   
    83. D(H  18,C   6,C   5,H  16)     65.48  0.000157   -1.16     64.32   
    84. D(O   7,C   6,C   5,H  16)   -175.59  0.000063   -1.08   -176.67   
    85. D(C  12,C   6,C   5,H  17)     64.43  0.000182   -1.17     63.26   
    86. D(C  12,C   6,C   5,H  16)    -56.28  0.000042   -1.05    -57.34   
    87. D(C  12,C   6,C   5,O   4)   -178.34  0.000050   -1.05   -179.39   
    88. D(H  18,C   6,C   5,H  17)   -173.80  0.000297   -1.28   -175.09   
    89. D(H  18,C   6,C   5,O   4)    -56.57  0.000165   -1.16    -57.74   
    90. D(C   8,O   7,C   6,H  18)   -111.92 -0.000046   -0.27   -112.19   
    91. D(C   8,O   7,C   6,C  12)      6.49  0.000082   -0.38      6.11   
    92. D(C   8,O   7,C   6,C   5)    129.29  0.000131   -0.40    128.89   
    93. D(C  10,C   8,O   7,C   6)     17.52 -0.000109    0.33     17.85   
    94. D(O   9,C   8,O   7,C   6)   -100.56 -0.000139    0.36   -100.21   
    95. D(H  19,C   8,O   7,C   6)    138.38 -0.000047    0.28    138.66   
    96. D(H  20,O   9,C   8,H  19)     75.64  0.000089   -0.41     75.22   
    97. D(H  20,O   9,C   8,O   7)    -43.66  0.000104   -0.42    -44.08   
    98. D(H  20,O   9,C   8,C  10)   -160.93  0.000088   -0.38   -161.32   
    99. D(O  11,C  10,C   8,O   7)     80.97  0.000028   -0.09     80.87   
   100. D(H  21,C  10,C   8,O   9)    -32.21  0.000013   -0.09    -32.31   
   101. D(H  21,C  10,C   8,O   7)   -152.70  0.000024   -0.08   -152.79   
   102. D(C  12,C  10,C   8,H  19)   -151.14 -0.000019   -0.06   -151.20   
   103. D(C  12,C  10,C   8,O   9)     86.80  0.000050   -0.14     86.65   
   104. D(C  12,C  10,C   8,O   7)    -33.69  0.000061   -0.13    -33.83   
   105. D(O  11,C  10,C   8,H  19)    -36.48 -0.000052   -0.02    -36.50   
   106. D(H  21,C  10,C   8,H  19)     89.85 -0.000057   -0.01     89.84   
   107. D(O  11,C  10,C   8,O   9)   -158.54  0.000018   -0.10   -158.65   
   108. D(H  22,O  11,C  10,H  21)    -57.20 -0.000046    0.23    -56.97   
   109. D(H  22,O  11,C  10,C  12)    178.73 -0.000030    0.24    178.97   
   110. D(H  22,O  11,C  10,C   8)     68.37 -0.000077    0.23     68.59   
   111. D(H  23,C  12,C  10,H  21)     37.33  0.000026   -0.16     37.17   
   112. D(H  23,C  12,C  10,C   8)    -80.26  0.000026   -0.12    -80.38   
   113. D(O  13,C  12,C  10,H  21)    -82.69  0.000054   -0.18    -82.87   
   114. D(O  13,C  12,C  10,O  11)     41.07  0.000035   -0.16     40.90   
   115. D(C   6,C  12,C  10,H  21)    153.22  0.000035   -0.13    153.09   
   116. D(C   6,C  12,C  10,O  11)    -83.03  0.000016   -0.11    -83.14   
   117. D(C   6,C  12,C  10,C   8)     35.63  0.000035   -0.09     35.54   
   118. D(H  23,C  12,C   6,H  18)   -154.66  0.000010    0.28   -154.38   
   119. D(H  23,C  12,C   6,O   7)     88.16 -0.000025    0.30     88.46   
   120. D(H  23,C  12,C   6,C   5)    -34.09 -0.000033    0.28    -33.81   
   121. D(O  13,C  12,C   6,H  18)    -34.19  0.000006    0.27    -33.92   
   122. D(O  13,C  12,C  10,C   8)    159.72  0.000054   -0.14    159.58   
   123. D(O  13,C  12,C   6,O   7)   -151.37 -0.000030    0.30   -151.08   
   124. D(O  13,C  12,C   6,C   5)     86.37 -0.000038    0.28     86.65   
   125. D(C  10,C  12,C   6,H  18)     90.00 -0.000005    0.25     90.25   
   126. D(H  23,C  12,C  10,O  11)    161.09  0.000007   -0.14    160.94   
   127. D(C  10,C  12,C   6,O   7)    -27.18 -0.000041    0.27    -26.91   
   128. D(C  10,C  12,C   6,C   5)   -149.44 -0.000049    0.25   -149.18   
   129. D(H  24,O  13,C  12,H  23)   -169.52 -0.000062    0.26   -169.26   
   130. D(H  24,O  13,C  12,C  10)    -48.36 -0.000105    0.28    -48.09   
   131. D(H  24,O  13,C  12,C   6)     68.49 -0.000036    0.26     68.75   
    ----------------------------------------------------------------------------

         *************************************************************
         *                GEOMETRY OPTIMIZATION CYCLE   3            *
         *************************************************************
---------------------------------
CARTESIAN COORDINATES (ANGSTROEM)
---------------------------------
  O     2.373675   -0.305121    2.068151
  P     3.051400    0.092285    0.843448
  O     3.526489    1.616251    0.728160
  O     4.411170   -0.671129    0.557761
  O     2.197924   -0.071051   -0.515546
  C     1.040608   -0.880279   -0.486235
  C    -0.132061   -0.170483    0.180039
  O    -0.494164    1.013796   -0.524138
  C    -1.868652    1.029167   -0.793613
  O    -2.144921    0.643391   -2.106499
  C    -2.515050    0.007578    0.149592
  O    -2.725197    0.508388    1.444055
  C    -1.398585   -1.052074    0.230973
  O    -1.473037   -1.886366    1.331391
  H     2.845850    2.197571    1.051404
  H     4.860162   -0.303633   -0.201634
  H     1.226984   -1.805051    0.065471
  H     0.808763   -1.100981   -1.531562
  H     0.171132    0.111261    1.195609
  H    -2.226259    2.057786   -0.612066
  H    -1.517178    1.087200   -2.689247
  H    -3.435893   -0.389592   -0.289357
  H    -3.408222    1.185739    1.420451
  H    -1.443821   -1.688778   -0.657994
  H    -1.606085   -1.334445    2.114798

----------------------------
CARTESIAN COORDINATES (A.U.)
----------------------------
  NO LB    ZA    FRAG    MASS        X           Y           Z
   0 O   8.0000    0    15.999    4.485595   -0.576594    3.908240
   1 P  15.0000    0    30.974    5.766311    0.174394    1.593886
   2 O   8.0000    0    15.999    6.664098    3.054271    1.376023
   3 O   8.0000    0    15.999    8.335904   -1.268249    1.054016
   4 O   8.0000    0    15.999    4.153474   -0.134268   -0.974241
   5 C   6.0000    0    12.011    1.966464   -1.663486   -0.918851
   6 C   6.0000    0    12.011   -0.249559   -0.322166    0.340225
   7 O   8.0000    0    15.999   -0.933835    1.915796   -0.990478
   8 C   6.0000    0    12.011   -3.531240    1.944844   -1.499712
   9 O   8.0000    0    15.999   -4.053314    1.215832   -3.980706
  10 C   6.0000    0    12.011   -4.752756    0.014320    0.282688
  11 O   8.0000    0    15.999   -5.149876    0.960713    2.728868
  12 C   6.0000    0    12.011   -2.642943   -1.988131    0.436476
  13 O   8.0000    0    15.999   -2.783637   -3.564714    2.515964
  14 H   1.0000    0     1.008    5.377877    4.152807    1.986866
  15 H   1.0000    0     1.008    9.184376   -0.573783   -0.381032
  16 H   1.0000    0     1.008    2.318663   -3.411051    0.123723
  17 H   1.0000    0     1.008    1.528341   -2.080553   -2.894233
  18 H   1.0000    0     1.008    0.323392    0.210252    2.259374
[...]
     50      -0.060242  -0.304985   0.237717   0.038700  -0.000063  -0.000317
     51      -0.459230   0.059228  -0.144597   0.050924   0.000143  -0.000815
     52      -0.208009  -0.003439  -0.042915   0.025688   0.000194  -0.001507
     53      -0.803078   0.084827  -0.243190   0.089754   0.000998  -0.001705
     54       0.039044   0.034488   0.004309   0.323318   0.001062  -0.000052
     55      -0.023725  -0.021464  -0.002645  -0.211521  -0.000011   0.000568
     56       0.112094   0.099922   0.014435   0.905184   0.000348  -0.000990
     57       0.001690   0.000965   0.002455   0.001622   0.000022   0.000079
     58      -0.007417  -0.004544  -0.011197  -0.005502  -0.001421  -0.003606
     59      -0.001361  -0.000870  -0.001764  -0.000546   0.000053  -0.002179
     60      -0.002419   0.001072   0.000381   0.001175   0.003455   0.966751
     61       0.000831   0.001123   0.000566   0.000069   0.000971   0.209574
     62       0.000215  -0.000389   0.000275   0.000081  -0.000609  -0.132085
     63       0.026457  -0.091119  -0.091293   0.013150  -0.000786   0.003175
     64       0.006773  -0.023269  -0.023729   0.003058  -0.000518   0.001284
     65       0.036551  -0.126357  -0.127342   0.017601  -0.002370   0.002937
     66       0.000125  -0.000932  -0.000896  -0.000469  -0.006334  -0.001284
     67       0.000379  -0.000517  -0.000076   0.000803   0.010378   0.001603
     68      -0.000097   0.000318  -0.000067  -0.000592  -0.002531  -0.000850
     69       0.004033  -0.022171  -0.029587   0.002419   0.001307  -0.000133
     70       0.111583  -0.404794  -0.498650   0.037341   0.005168   0.000293
     71       0.121707  -0.440815  -0.544218   0.038815   0.004633   0.000482
     72      -0.000520   0.002252   0.002265  -0.001506  -0.333399   0.001227
     73      -0.000696   0.003655   0.005716  -0.001587   0.707221  -0.002595
     74      -0.000890   0.005203   0.006795  -0.000777   0.620193  -0.002225
                 72         73         74    
      0       0.000009  -0.000031   0.000082
      1      -0.000007  -0.000308   0.000262
      2       0.000003   0.000199  -0.000533
      3      -0.000023  -0.000261   0.000047
      4       0.000005   0.000365  -0.000267
      5      -0.000001   0.000215   0.000411
      6      -0.000280  -0.048747   0.004636
      7       0.000084   0.013771  -0.001410
      8       0.000217   0.035757  -0.003270
      9       0.000004   0.000036  -0.003851
     10      -0.000058  -0.002817  -0.028829
     11       0.000100   0.004892   0.054948
     12       0.000008  -0.000309   0.000347
     13      -0.000007  -0.000444   0.000133
     14       0.000005  -0.000142   0.000074
     15      -0.000020   0.000315  -0.000170
     16       0.000019   0.000288  -0.000256
     17       0.000016  -0.000029   0.000024
     18      -0.000025   0.000192  -0.000024
     19       0.000070  -0.000129   0.000005
     20      -0.000068  -0.000043   0.000043
     21       0.000091  -0.000142   0.000070
     22      -0.000003   0.000199  -0.000042
     23       0.000027   0.000294   0.000025
     24      -0.000115   0.000006  -0.000059
     25      -0.000162  -0.000093   0.000053
     26      -0.000014  -0.000354  -0.000061
     27      -0.000091  -0.000714   0.000014
     28      -0.000026  -0.000104  -0.000015
     29      -0.000032   0.000188   0.000031
     30      -0.000856  -0.000050  -0.000017
     31       0.001124  -0.000037   0.000011
     32      -0.000083  -0.000054   0.000007
     33      -0.034616   0.000228   0.000051
     34       0.048493  -0.000252  -0.000071
     35      -0.017517   0.000131   0.000015
     36       0.000085   0.000023  -0.000040
     37       0.000296  -0.000024  -0.000032
     38       0.000008  -0.000018  -0.000006
     39       0.000167  -0.000036   0.000030
     40      -0.000609   0.000099  -0.000018
     41      -0.000245   0.000067  -0.000045
     42       0.004552   0.780566  -0.071369
     43      -0.001402  -0.221673   0.020852
     44      -0.003473  -0.573779   0.052315
     45       0.000037   0.003434   0.052637
     46       0.000869   0.042884   0.462908
     47      -0.001625  -0.080320  -0.877938
     48       0.000090  -0.000059  -0.000221
     49      -0.000220  -0.000351   0.001045
     50       0.000113   0.000358  -0.000292
     51      -0.000117  -0.000481   0.000438
     52      -0.000052  -0.000292   0.000477
     53      -0.000213  -0.000354   0.000406
     54       0.000404   0.000254  -0.000036
     55      -0.000353   0.000160   0.000097
     56       0.000984  -0.000328  -0.000423
     57      -0.000654  -0.000688   0.000091
     58      -0.000773   0.001332  -0.000329
     59       0.000490  -0.000102   0.000028
     60       0.002295   0.011192  -0.000163
     61       0.000600   0.002297   0.000202
     62      -0.000345  -0.000955  -0.000424
     63       0.001967   0.000298   0.000004
     64      -0.001409   0.000077  -0.000002
     65       0.002660   0.000395   0.000034
     66       0.558917  -0.003670  -0.000724
     67      -0.780698   0.004504   0.001023
     68       0.272119  -0.001747  -0.000340
     69      -0.000410   0.000040  -0.000047
     70      -0.000254   0.000290   0.000058
     71      -0.000892   0.000280   0.000123
     72      -0.004375   0.000434  -0.000247
     73       0.007702  -0.001506   0.000474
     74       0.008720  -0.001011   0.000430


-----------
IR SPECTRUM
-----------

 Mode   freq       eps      Int      T**2         TX        TY        TZ
       cm**-1   L/(mol*cm) km/mol    a.u.
----------------------------------------------------------------------------
  6:     21.35   0.001016    5.13  0.014844  (-0.049319  0.080014 -0.077523)
  7:     28.73   0.000636    3.21  0.006903  (-0.077444  0.013086 -0.027088)
  8:     47.84   0.000788    3.98  0.005142  ( 0.030543  0.027383  0.058813)
  9:     88.15   0.000765    3.86  0.002707  (-0.016744 -0.038709  0.030470)
 10:    104.18   0.003850   19.46  0.011532  ( 0.102949 -0.027396  0.013514)
 11:    153.72   0.000858    4.34  0.001742  ( 0.013440 -0.026431  0.029369)
 12:    191.31   0.001689    8.53  0.002755  ( 0.000815  0.050854 -0.012952)
 13:    217.20   0.001255    6.34  0.001803  (-0.030170 -0.029584  0.004170)
 14:    230.33   0.005783   29.22  0.007835  (-0.085883  0.004713 -0.020897)
 15:    250.56   0.032491  164.20  0.040467  ( 0.155876  0.126741  0.010323)
 16:    266.36   0.020245  102.31  0.023720  ( 0.046695 -0.143866  0.029012)
 17:    274.22   0.023478  118.65  0.026718  (-0.053547 -0.113785 -0.104420)
 18:    293.26   0.001182    5.97  0.001258  (-0.016463 -0.002301  0.031333)
 19:    305.44   0.019613   99.11  0.020038  ( 0.111044 -0.069622  0.053477)
 20:    317.80   0.011844   59.85  0.011630  ( 0.021887  0.104047  0.018041)
 21:    346.90   0.006723   33.97  0.006047  (-0.050856 -0.023298 -0.054022)
 22:    372.00   0.013273   67.08  0.011135  (-0.070205 -0.019515 -0.076323)
 23:    374.41   0.027414  138.54  0.022849  (-0.147167  0.017745 -0.029596)
 24:    404.76   0.031334  158.35  0.024158  (-0.124804  0.026215 -0.088852)
 25:    425.76   0.003227   16.31  0.002365  (-0.024718  0.035170 -0.022748)
 26:    438.74   0.020586  104.03  0.014642  ( 0.022765  0.090041  0.077566)
 27:    464.64   0.009915   50.10  0.006659  ( 0.056193  0.055647  0.020116)
 28:    542.41   0.000516    2.61  0.000297  ( 0.014887 -0.007460  0.004446)
 29:    579.65   0.002429   12.27  0.001308  ( 0.033816 -0.007965 -0.010034)
 30:    630.57   0.010958   55.38  0.005423  ( 0.070394  0.008211 -0.020003)
 31:    715.92   0.029971  151.46  0.013064  (-0.045491 -0.058568 -0.086974)
 32:    726.07   0.008804   44.49  0.003784  ( 0.039331 -0.014195 -0.045116)
 33:    782.81   0.001986   10.03  0.000792  (-0.026596 -0.008602 -0.003190)
 34:    803.51   0.043909  221.90  0.017053  ( 0.037887  0.119038  0.038046)
 35:    830.70   0.012193   61.62  0.004581  (-0.034320  0.052451  0.025525)
 36:    848.23   0.001980   10.01  0.000728  (-0.010152 -0.014832 -0.020136)
 37:    900.43   0.062467  315.68  0.021649  (-0.144291  0.003256  0.028613)
 38:    907.09   0.054837  277.12  0.018865  ( 0.125640 -0.055189  0.005828)
 39:    929.88   0.059546  300.92  0.019983  ( 0.078146  0.116375 -0.018259)
 40:    966.41   0.008116   41.02  0.002621  (-0.001255  0.030096 -0.041395)
 41:   1006.78   0.006907   34.90  0.002141  (-0.038539  0.014931  0.020800)
 42:   1022.69   0.004410   22.29  0.001346  (-0.012103 -0.034489 -0.003096)
 43:   1050.92   0.007120   35.98  0.002114  ( 0.044985  0.005947  0.007426)
 44:   1068.86   0.015234   76.99  0.004448  ( 0.017433 -0.041351  0.049335)
 45:   1084.69   0.026090  131.85  0.007506  (-0.040964  0.026081  0.071748)
 46:   1106.40   0.029744  150.32  0.008389  (-0.058594 -0.070396  0.000713)
 47:   1117.33   0.008792   44.43  0.002455  (-0.023638 -0.000308  0.043550)
 48:   1141.27   0.027722  140.10  0.007580  (-0.040791 -0.000485  0.076916)
 49:   1160.36   0.010267   51.89  0.002761  (-0.010353 -0.047494  0.019962)
 50:   1187.89   0.010864   54.90  0.002854  (-0.005964 -0.008365  0.052426)
 51:   1199.92   0.003939   19.90  0.001024  ( 0.027079 -0.001536  0.016990)
 52:   1225.76   0.002972   15.02  0.000757  (-0.000615  0.027277 -0.003497)
 53:   1232.38   0.004097   20.70  0.001037  ( 0.013190  0.017360 -0.023707)
 54:   1244.66   0.003925   19.83  0.000984  ( 0.012711 -0.025740 -0.012646)
 55:   1260.62   0.008084   40.85  0.002001  (-0.010238 -0.018502  0.039420)
 56:   1285.20   0.013732   69.40  0.003334  ( 0.022467  0.002335  0.053142)
 57:   1298.93   0.045030  227.56  0.010818  (-0.005792 -0.043300  0.094392)
 58:   1299.60   0.006796   34.34  0.001632  ( 0.013323  0.037613 -0.006291)
 59:   1305.80   0.028015  141.58  0.006695  ( 0.015291 -0.009306  0.079842)
 60:   1325.93   0.011278   56.99  0.002654  ( 0.011650  0.028140 -0.041553)
 61:   1336.35   0.001944    9.82  0.000454  (-0.005896 -0.018537 -0.008693)
 62:   1362.02   0.010657   53.86  0.002442  ( 0.022227  0.028345 -0.033827)
 63:   1447.90   0.000132    0.67  0.000028  ( 0.001826 -0.004558  0.002072)
 64:   2851.32   0.009899   50.02  0.001083  ( 0.003162 -0.032731 -0.001437)
 65:   2936.68   0.004285   21.66  0.000455  ( 0.009042 -0.000697  0.019317)
 66:   2948.22   0.000005    0.02  0.000000  ( 0.000453 -0.000227 -0.000485)
 67:   2957.04   0.002173   10.98  0.000229  ( 0.002895 -0.008383  0.012274)
 68:   2959.33   0.007036   35.56  0.000742  ( 0.002147  0.023505  0.013597)
 69:   2989.48   0.000201    1.02  0.000021  ( 0.000468  0.002408 -0.003871)
 70:   3478.31   0.012183   61.57  0.001093  (-0.018637  0.021172  0.017247)
 71:   3501.04   0.007788   39.36  0.000694  ( 0.025023 -0.001198 -0.008164)
 72:   3568.46   0.004158   21.01  0.000364  ( 0.011196 -0.011780  0.009974)
 73:   3598.01   0.019712   99.62  0.001710  ( 0.031408 -0.011569 -0.024276)
 74:   3606.73   0.007143   36.10  0.000618  ( 0.002441  0.015129 -0.019576)

* The epsilon (eps) is given for a Dirac delta lineshape.
** The dipole moment derivative (T) already includes vibrational overlap.

The first frequency considered to be a vibration is 6
The total number of vibrations considered is 69


--------------------------
THERMOCHEMISTRY AT 298.15K
--------------------------

Temperature         ... 298.15 K
Pressure            ... 1.00 atm
Total Mass          ... 230.11 AMU

Throughout the following assumptions are being made:
  (1) The electronic state is orbitally nondegenerate
  (2) There are no thermally accessible electronically excited states
  (3) Hindered rotations indicated by low frequency modes are not
      treated as such but are treated as vibrations and this may
      cause some error
  (4) All equations used are the standard statistical mechanics
      equations for an ideal gas
  (5) All vibrations are strictly harmonic

freq.      21.35  E(vib)   ...       0.56 
freq.      28.73  E(vib)   ...       0.55 
freq.      47.84  E(vib)   ...       0.53 
freq.      88.15  E(vib)   ...       0.48 
freq.     104.18  E(vib)   ...       0.46 
freq.     153.72  E(vib)   ...       0.40 
freq.     191.31  E(vib)   ...       0.36 
freq.     217.20  E(vib)   ...       0.34 
freq.     230.33  E(vib)   ...       0.32 
freq.     250.56  E(vib)   ...       0.30 
freq.     266.36  E(vib)   ...       0.29 
freq.     274.22  E(vib)   ...       0.28 
freq.     293.26  E(vib)   ...       0.27 
freq.     305.44  E(vib)   ...       0.26 
freq.     317.80  E(vib)   ...       0.25 
freq.     346.90  E(vib)   ...       0.23 
freq.     372.00  E(vib)   ...       0.21 
freq.     374.41  E(vib)   ...       0.21 
freq.     404.76  E(vib)   ...       0.19 
freq.     425.76  E(vib)   ...       0.18 
freq.     438.74  E(vib)   ...       0.17 
freq.     464.64  E(vib)   ...       0.16 
freq.     542.41  E(vib)   ...       0.12 
freq.     579.65  E(vib)   ...       0.11 
freq.     630.57  E(vib)   ...       0.09 
freq.     715.92  E(vib)   ...       0.07 
freq.     726.07  E(vib)   ...       0.06 
freq.     782.81  E(vib)   ...       0.05 
freq.     803.51  E(vib)   ...       0.05 
freq.     830.70  E(vib)   ...       0.04 
freq.     848.23  E(vib)   ...       0.04 
freq.     900.43  E(vib)   ...       0.03 
freq.     907.09  E(vib)   ...       0.03 
freq.     929.88  E(vib)   ...       0.03 
freq.     966.41  E(vib)   ...       0.03 
freq.    1006.78  E(vib)   ...       0.02 
freq.    1022.69  E(vib)   ...       0.02 
freq.    1050.92  E(vib)   ...       0.02 
freq.    1068.86  E(vib)   ...       0.02 
freq.    1084.69  E(vib)   ...       0.02 
freq.    1106.40  E(vib)   ...       0.02 
freq.    1117.33  E(vib)   ...       0.01 
freq.    1141.27  E(vib)   ...       0.01 
freq.    1160.36  E(vib)   ...       0.01 
freq.    1187.89  E(vib)   ...       0.01 
freq.    1199.92  E(vib)   ...       0.01 
freq.    1225.76  E(vib)   ...       0.01 
freq.    1232.38  E(vib)   ...       0.01 
freq.    1244.66  E(vib)   ...       0.01 
freq.    1260.62  E(vib)   ...       0.01 
freq.    1285.20  E(vib)   ...       0.01 
freq.    1298.93  E(vib)   ...       0.01 
freq.    1299.60  E(vib)   ...       0.01 
freq.    1305.80  E(vib)   ...       0.01 
freq.    1325.93  E(vib)   ...       0.01 
freq.    1336.35  E(vib)   ...       0.01 
freq.    1362.02  E(vib)   ...       0.01 
freq.    1447.90  E(vib)   ...       0.00 
freq.    2851.32  E(vib)   ...       0.00 
freq.    2936.68  E(vib)   ...       0.00 
freq.    2948.22  E(vib)   ...       0.00 
freq.    2957.04  E(vib)   ...       0.00 
freq.    2959.33  E(vib)   ...       0.00 
freq.    2989.48  E(vib)   ...       0.00 
freq.    3478.31  E(vib)   ...       0.00 
freq.    3501.04  E(vib)   ...       0.00 
freq.    3568.46  E(vib)   ...       0.00 
freq.    3598.01  E(vib)   ...       0.00 
freq.    3606.73  E(vib)   ...       0.00 

------------
INNER ENERGY
------------

The inner energy is: U= E(el) + E(ZPE) + E(vib) + E(rot) + E(trans)
    E(el)   - is the total energy from the electronic structure calculation
              = E(kin-el) + E(nuc-el) + E(el-el) + E(nuc-nuc)
    E(ZPE)  - the the zero temperature vibrational energy from the frequency calculation
    E(vib)  - the the finite temperature correction to E(ZPE) due to population
              of excited vibrational states
    E(rot)  - is the rotational thermal energy
    E(trans)- is the translational thermal energy

Summary of contributions to the inner energy U:
Electronic energy                ...    -51.52655307 Eh
Zero point energy                ...      0.17985725 Eh     112.86 kcal/mol
Thermal vibrational correction   ...      0.01278326 Eh       8.02 kcal/mol
Thermal rotational correction    ...      0.00141627 Eh       0.89 kcal/mol
Thermal translational correction ...      0.00141627 Eh       0.89 kcal/mol
-----------------------------------------------------------------------
Total thermal energy                    -51.33108002 Eh


Summary of corrections to the electronic energy:
(perhaps to be used in another calculation)
Total thermal correction                  0.01561580 Eh       9.80 kcal/mol
Non-thermal (ZPE) correction              0.17985725 Eh     112.86 kcal/mol
-----------------------------------------------------------------------
Total correction                          0.19547305 Eh     122.66 kcal/mol


--------
ENTHALPY
--------

The enthalpy is H = U + kB*T
                kB is Boltzmann's constant
Total free energy                 ...    -51.33108002 Eh 
Thermal Enthalpy correction       ...      0.00094421 Eh       0.59 kcal/mol
-----------------------------------------------------------------------
Total Enthalpy                    ...    -51.33013581 Eh


Note: Only C1 symmetry has been detected, increase convergence thresholds 
      if your molecule has a higher symmetry. Symmetry factor of 1.0 is   
      used for the rotational entropy correction. 
 

Note: Rotational entropy computed according to Herzberg 
Infrared and Raman Spectra, Chapter V,1, Van Nostrand Reinhold, 1945 
Point Group:  C1, Symmetry Number:   1  
Rotational constants in cm-1:     0.042958     0.013095     0.012050 

Vibrational entropy computed according to the QRRHO of S. Grimme
Chem.Eur.J. 2012 18 9955


-------
ENTROPY
-------

The entropy contributions are T*S = T*(S(el)+S(vib)+S(rot)+S(trans))
     S(el)   - electronic entropy
     S(vib)  - vibrational entropy
     S(rot)  - rotational entropy
     S(trans)- translational entropy
The entropies will be listed as multiplied by the temperature to get
units of energy

Electronic entropy                ...      0.00000000 Eh      0.00 kcal/mol
Vibrational entropy               ...      0.02250621 Eh     14.12 kcal/mol
Rotational entropy                ...      0.01512953 Eh      9.49 kcal/mol
Translational entropy             ...      0.02005154 Eh     12.58 kcal/mol
-----------------------------------------------------------------------
Final entropy term                ...      0.05768728 Eh     36.20 kcal/mol

In case the symmetry of your molecule has not been determined correctly
or in case you have a reason to use a different symmetry number we print 
out the resulting rotational entropy values for sn=1,12 :
 --------------------------------------------------------
|  sn= 1 | S(rot)=       0.01512953 Eh      9.49 kcal/mol|
|  sn= 2 | S(rot)=       0.01447507 Eh      9.08 kcal/mol|
|  sn= 3 | S(rot)=       0.01409224 Eh      8.84 kcal/mol|
|  sn= 4 | S(rot)=       0.01382061 Eh      8.67 kcal/mol|
|  sn= 5 | S(rot)=       0.01360993 Eh      8.54 kcal/mol|
|  sn= 6 | S(rot)=       0.01343778 Eh      8.43 kcal/mol|
|  sn= 7 | S(rot)=       0.01329224 Eh      8.34 kcal/mol|
|  sn= 8 | S(rot)=       0.01316616 Eh      8.26 kcal/mol|
|  sn= 9 | S(rot)=       0.01305495 Eh      8.19 kcal/mol|
|  sn=10 | S(rot)=       0.01295547 Eh      8.13 kcal/mol|
|  sn=11 | S(rot)=       0.01286548 Eh      8.07 kcal/mol|
|  sn=12 | S(rot)=       0.01278333 Eh      8.02 kcal/mol|
 --------------------------------------------------------


-------------------
GIBBS FREE ENERGY
-------------------

The Gibbs free energy is G = H - T*S

Total enthalpy                    ...    -51.33013581 Eh 
Total entropy correction          ...     -0.05768728 Eh    -36.20 kcal/mol
-----------------------------------------------------------------------
Final Gibbs free energy         ...    -51.38782309 Eh

For completeness - the Gibbs free energy minus the electronic energy
G-E(el)                           ...      0.13872998 Eh     87.05 kcal/mol



Timings for individual modules:

Sum of individual times         ...      367.482 sec (=   6.125 min)
Geometry relaxation             ...        1.882 sec (=   0.031 min)   0.5 %
Numerical frequency calculation ...      364.040 sec (=   6.067 min)  99.1 %
XTB module                      ...        1.559 sec (=   0.026 min)   0.4 %
                             ****ORCA TERMINATED NORMALLY****
TOTAL RUN TIME: 0 days 0 hours 6 minutes 9 seconds 60 msec
