
                                 *****************
                                 * O   R   C   A *
                                 *****************

                                            #,                                       
                                            ###                                      
                                            ####                                     
                                            #####                                    
                                            ######                                   
                                           ########,                                 
                                     ,,################,,,,,                         
                               ,,#################################,,                 
                          ,,##########################################,,             
                       ,#########################################, ''#####,          
                    ,#############################################,,   '####,        
                  ,##################################################,,,,####,       
                ,###########''''           ''''###############################       
              ,#####''   ,,,,##########,,,,          '''####'''          '####       
            ,##' ,,,,###########################,,,                        '##       
           ' ,,###''''                  '''############,,,                           
         ,,##''                                '''############,,,,        ,,,,,,###''
      ,#''                                            '''#######################'''  
     '                                                          ''''####''''         
             ,#######,   #######,   ,#######,      ##                                
            ,#'     '#,  ##    ##  ,#'     '#,    #''#        ######   ,####,        
            ##       ##  ##   ,#'  ##            #'  '#       #        #'  '#        
            ##       ##  #######   ##           ,######,      #####,   #    #        
            '#,     ,#'  ##    ##  '#,     ,#' ,#      #,         ##   #,  ,#        
             '#######'   ##     ##  '#######'  #'      '#     #####' # '####'        



                  #######################################################
                  #                        -***-                        #
                  #          Department of theory and spectroscopy      #
                  #    Directorship and core code : Frank Neese         #
                  #        Max Planck Institute fuer Kohlenforschung    #
                  #                Kaiser Wilhelm Platz 1               #
                  #                 D-45470 Muelheim/Ruhr               #
                  #                      Germany                        #
                  #                                                     #
                  #                  All rights reserved                #
                  #                        -***-                        #
                  #######################################################


                         Program Version 5.0.3 -  RELEASE  -


 With contributions from (in alphabetic order):
   Daniel Aravena         : Magnetic Suceptibility
   Michael Atanasov       : Ab Initio Ligand Field Theory (pilot matlab implementation)
   Alexander A. Auer      : GIAO ZORA, VPT2 properties, NMR spectrum
   Ute Becker             : Parallelization
   Giovanni Bistoni       : ED, misc. LED, open-shell LED, HFLD
   Martin Brehm           : Molecular dynamics
   Dmytro Bykov           : SCF Hessian
   Vijay G. Chilkuri      : MRCI spin determinant printing, contributions to CSF-ICE
   Dipayan Datta          : RHF DLPNO-CCSD density
   Achintya Kumar Dutta   : EOM-CC, STEOM-CC
   Dmitry Ganyushin       : Spin-Orbit,Spin-Spin,Magnetic field MRCI
   Miquel Garcia          : C-PCM and meta-GGA Hessian, CC/C-PCM, Gaussian charge scheme
   Yang Guo               : DLPNO-NEVPT2, F12-NEVPT2, CIM, IAO-localization
   Andreas Hansen         : Spin unrestricted coupled pair/coupled cluster methods
   Benjamin Helmich-Paris : MC-RPA, TRAH-SCF, COSX integrals
   Lee Huntington         : MR-EOM, pCC
   Robert Izsak           : Overlap fitted RIJCOSX, COSX-SCS-MP3, EOM
   Marcus Kettner         : VPT2
   Christian Kollmar      : KDIIS, OOCD, Brueckner-CCSD(T), CCSD density, CASPT2, CASPT2-K
   Simone Kossmann        : Meta GGA functionals, TD-DFT gradient, OOMP2, MP2 Hessian
   Martin Krupicka        : Initial AUTO-CI
   Lucas Lang             : DCDCAS
   Marvin Lechner         : AUTO-CI (C++ implementation), FIC-MRCC
   Dagmar Lenk            : GEPOL surface, SMD
   Dimitrios Liakos       : Extrapolation schemes; Compound Job, initial MDCI parallelization
   Dimitrios Manganas     : Further ROCIS development; embedding schemes
   Dimitrios Pantazis     : SARC Basis sets
   Anastasios Papadopoulos: AUTO-CI, single reference methods and gradients
   Taras Petrenko         : DFT Hessian,TD-DFT gradient, ASA, ECA, R-Raman, ABS, FL, XAS/XES, NRVS
   Peter Pinski           : DLPNO-MP2, DLPNO-MP2 Gradient
   Christoph Reimann      : Effective Core Potentials
   Marius Retegan         : Local ZFS, SOC
   Christoph Riplinger    : Optimizer, TS searches, QM/MM, DLPNO-CCSD(T), (RO)-DLPNO pert. Triples
   Tobias Risthaus        : Range-separated hybrids, TD-DFT gradient, RPA, STAB
   Michael Roemelt        : Original ROCIS implementation
   Masaaki Saitow         : Open-shell DLPNO-CCSD energy and density
   Barbara Sandhoefer     : DKH picture change effects
   Avijit Sen             : IP-ROCIS
   Kantharuban Sivalingam : CASSCF convergence, NEVPT2, FIC-MRCI
   Bernardo de Souza      : ESD, SOC TD-DFT
   Georgi Stoychev        : AutoAux, RI-MP2 NMR, DLPNO-MP2 response
   Willem Van den Heuvel  : Paramagnetic NMR
   Boris Wezisla          : Elementary symmetry handling
   Frank Wennmohs         : Technical directorship


 We gratefully acknowledge several colleagues who have allowed us to
 interface, adapt or use parts of their codes:
   Stefan Grimme, W. Hujo, H. Kruse, P. Pracht,  : VdW corrections, initial TS optimization,
                  C. Bannwarth, S. Ehlert          DFT functionals, gCP, sTDA/sTD-DF
   Ed Valeev, F. Pavosevic, A. Kumar             : LibInt (2-el integral package), F12 methods
   Garnet Chan, S. Sharma, J. Yang, R. Olivares  : DMRG
   Ulf Ekstrom                                   : XCFun DFT Library
   Mihaly Kallay                                 : mrcc  (arbitrary order and MRCC methods)
   Jiri Pittner, Ondrej Demel                    : Mk-CCSD
   Frank Weinhold                                : gennbo (NPA and NBO analysis)
   Christopher J. Cramer and Donald G. Truhlar   : smd solvation model
   Lars Goerigk                                  : TD-DFT with DH, B97 family of functionals
   V. Asgeirsson, H. Jonsson                     : NEB implementation
   FAccTs GmbH                                   : IRC, NEB, NEB-TS, DLPNO-Multilevel, CI-OPT
                                                   MM, QMMM, 2- and 3-layer-ONIOM, Crystal-QMMM,
                                                   LR-CPCM, SF, NACMEs, symmetry and pop. for TD-DFT,
                                                   nearIR, NL-DFT gradient (VV10), updates on ESD,
                                                   ML-optimized integration grids
   S Lehtola, MJT Oliveira, MAL Marques          : LibXC Library
   Liviu Ungur et al                             : ANISO software


 Your calculation uses the libint2 library for the computation of 2-el integrals
 For citations please refer to: http://libint.valeyev.net

 Your ORCA version has been built with support for libXC version: 5.1.0
 For citations please refer to: https://tddft.org/programs/libxc/

 This ORCA versions uses:
   CBLAS   interface :  Fast vector & matrix operations
   LAPACKE interface :  Fast linear algebra routines
   SCALAPACK package :  Parallel linear algebra routines
   Shared memory     :  Shared parallel matrices
   BLAS/LAPACK       :  OpenBLAS 0.3.15  USE64BITINT DYNAMIC_ARCH NO_AFFINITY Haswell SINGLE_THREADED
        Core in use  :  Haswell
   Copyright (c) 2011-2014, The OpenBLAS Project


Your calculation utilizes the semiempirical GFN2-xTB method
Please cite in your paper:
C. Bannwarth, Ehlert S., S. Grimme,  J. Chem. Theory Comput., 15, (2019), 1652.
   

================================================================================

================================================================================
                                        WARNINGS
                       Please study these warnings very carefully!
================================================================================


WARNING: Geometry Optimization
  ===> : Switching off AutoStart
         For restart on a previous wavefunction, please use MOREAD

WARNING: Found dipole moment calculation with XTB calculation
  ===> : Switching off dipole moment calculation


WARNING: TRAH-SCF for XTB is not implemented!
  ===> : Turning TRAH off!

================================================================================
                                       INPUT FILE
================================================================================
NAME = /tmp/C00231.inp
|  1> ! XTB2 opt numfreq
|  2> * XYZ 0 1
|  3> O -1.5451 -0.4581 -2.4110
|  4> C -1.5400 -0.5955 -1.1804
|  5> C -2.2848 0.3743 -0.2721
|  6> O -3.2280 1.1429 -1.0094
|  7> C -0.8436 -1.7966 -0.5368
|  8> O -0.2897 -2.6420 -1.5543
|  9> C 0.2638 -1.4231 0.4572
| 10> O -0.3022 -0.7602 1.5919
| 11> C 1.4117 -0.6148 -0.1691
| 12> O 0.9998 0.7184 -0.4350
| 13> P 1.5458 1.8939 0.5005
| 14> O 0.9759 3.2478 0.2754
| 15> O 3.1306 1.8422 0.3411
| 16> O 1.3328 1.3619 1.9952
| 17> H -2.8337 -0.1843 0.4900
| 18> H -1.5796 1.0603 0.2004
| 19> H -2.8081 1.3342 -1.8713
| 20> H -1.6256 -2.3732 -0.0294
| 21> H -0.7354 -2.3899 -2.3905
| 22> H 0.7027 -2.3590 0.8253
| 23> H 0.3988 -0.2122 2.0072
| 24> H 1.7527 -1.0649 -1.1064
| 25> H 2.2670 -0.6105 0.5159
| 26> H 3.4228 2.3985 -0.4057
| 27> H 1.4113 2.1102 2.6196
| 28> *
| 29> 
| 30>                          ****END OF INPUT****
================================================================================

                       *****************************
                       * Geometry Optimization Run *
                       *****************************

Geometry optimization settings:
Update method            Update   .... BFGS
Choice of coordinates    CoordSys .... Z-matrix Internals
Initial Hessian          InHess   .... Almoef's Model

Convergence Tolerances:
Energy Change            TolE     ....  5.0000e-06 Eh
Max. Gradient            TolMAXG  ....  3.0000e-04 Eh/bohr
RMS Gradient             TolRMSG  ....  1.0000e-04 Eh/bohr
Max. Displacement        TolMAXD  ....  4.0000e-03 bohr
RMS Displacement         TolRMSD  ....  2.0000e-03 bohr
Strict Convergence                ....  False
------------------------------------------------------------------------------
                        ORCA OPTIMIZATION COORDINATE SETUP
------------------------------------------------------------------------------

The optimization will be done in new redundant internal coordinates
Making redundant internal coordinates   ...  (new redundants) done
Evaluating the initial hessian          ...  (Almloef) done
Evaluating the coordinates              ...  done
Calculating the B-matrix                .... done
Calculating the G-matrix                .... done
Diagonalizing the G-matrix              .... done
Small eigenvalue found = 6.808e-03
Small eigenvalue found = 1.271e-02
Small eigenvalue found = 1.781e-02
Small eigenvalue found = 2.716e-02
The first mode is                       ....   45
The number of degrees of freedom        ....   69

    -----------------------------------------------------------------
                    Redundant Internal Coordinates


    -----------------------------------------------------------------
         Definition                    Initial Value    Approx d2E/dq
    -----------------------------------------------------------------
      1. B(C   1,O   0)                  1.2383         0.977173   
      2. B(C   2,C   1)                  1.5232         0.382974   
      3. B(O   3,C   2)                  1.4227         0.496314   
      4. B(C   4,C   1)                  1.5303         0.373156   
      5. B(O   5,C   4)                  1.4342         0.475798   
      6. B(C   6,C   4)                  1.5342         0.367809   
      7. B(O   7,C   6)                  1.4309         0.481614   
      8. B(C   8,C   6)                  1.5373         0.363697   
      9. B(O   9,C   8)                  1.4205         0.500303   
     10. B(P  10,O   9)                  1.5985         0.874548   
     11. B(O  11,P  10)                  1.4861         1.321429   
     12. B(O  12,P  10)                  1.5936         0.890190   
     13. B(O  13,P  10)                  1.6008         0.867104   
     14. B(H  14,C   2)                  1.0928         0.356469   
     15. B(H  15,C   2)                  1.0914         0.358250   
     16. B(H  16,O   3)                  0.9776         0.487327   
     17. B(H  17,C   4)                  1.0961         0.352114   
     18. B(H  18,O   5)                  0.9805         0.482189   
     19. B(H  19,C   6)                  1.0973         0.350588   
     20. B(H  20,O   7)                  0.9819         0.479717   
     21. B(H  21,C   8)                  1.0943         0.354510   
     22. B(H  22,C   8)                  1.0958         0.352506   
     23. B(H  23,O  12)                  0.9760         0.490289   
     24. B(H  24,O  13)                  0.9777         0.487137   
     25. A(C   2,C   1,C   4)          118.1275         0.364829   
     26. A(O   0,C   1,C   2)          121.3288         0.429156   
     27. A(O   0,C   1,C   4)          120.4599         0.427163   
     28. A(O   3,C   2,H  14)          107.7330         0.337312   
     29. A(C   1,C   2,H  15)          110.0229         0.325370   
     30. A(C   1,C   2,H  14)          109.6342         0.325104   
     31. A(C   1,C   2,O   3)          111.0450         0.380801   
     32. A(O   3,C   2,H  15)          108.2503         0.337592   
     33. A(H  14,C   2,H  15)          110.1169         0.290142   
     34. A(C   2,O   3,H  16)          106.1324         0.352416   
     35. A(C   1,C   4,C   6)          114.1969         0.362318   
     36. A(C   1,C   4,H  17)          106.4335         0.323068   
     37. A(C   1,C   4,O   5)          109.8792         0.376332   
     38. A(C   6,C   4,H  17)          110.0661         0.322305   
     39. A(O   5,C   4,C   6)          108.9285         0.375395   
     40. A(O   5,C   4,H  17)          107.0902         0.334267   
     41. A(C   4,O   5,H  18)          106.1367         0.349286   
     42. A(O   7,C   6,H  19)          106.6989         0.334701   
     43. A(C   4,C   6,H  19)          107.3621         0.322075   
     44. A(C   4,C   6,O   7)          109.9409         0.376184   
     45. A(O   7,C   6,C   8)          112.0155         0.375454   
     46. A(C   4,C   6,C   8)          113.7669         0.360734   
     47. A(C   8,C   6,H  19)          106.6461         0.321483   
     48. A(C   6,O   7,H  20)          108.1535         0.349700   
     49. A(C   6,C   8,O   9)          110.6846         0.377933   
     50. A(H  21,C   8,H  22)          107.0874         0.289158   
     51. A(O   9,C   8,H  22)          109.8562         0.337134   
     52. A(C   6,C   8,H  22)          109.2814         0.321770   
     53. A(O   9,C   8,H  21)          108.4258         0.337452   
     54. A(C   6,C   8,H  21)          111.4312         0.322069   
     55. A(C   8,O   9,P  10)          118.7903         0.468758   
     56. A(O  11,P  10,O  12)          113.3137         0.605147   
     57. A(O   9,P  10,O  12)          104.9093         0.559111   
     58. A(O   9,P  10,O  11)          116.7653         0.603080   
     59. A(O  12,P  10,O  13)          102.4117         0.558202   
     60. A(O  11,P  10,O  13)          113.1523         0.602087   
     61. A(O   9,P  10,O  13)          104.8694         0.556323   
     62. A(P  10,O  12,H  23)          110.8407         0.416129   
     63. A(P  10,O  13,H  24)          109.3452         0.413715   
     64. D(O   3,C   2,C   1,O   0)     16.4879         0.010934   
     65. D(O   3,C   2,C   1,C   4)   -160.1971         0.010934   
     66. D(H  14,C   2,C   1,O   0)    135.4195         0.010934   
     67. D(H  15,C   2,C   1,O   0)   -103.3374         0.010934   
     68. D(H  15,C   2,C   1,C   4)     79.9776         0.010934   
     69. D(H  14,C   2,C   1,C   4)    -41.2655         0.010934   
     70. D(H  16,O   3,C   2,C   1)    -37.5387         0.019465   
     71. D(H  16,O   3,C   2,H  15)     83.3371         0.019465   
     72. D(H  16,O   3,C   2,H  14)   -157.6067         0.019465   
     73. D(H  17,C   4,C   1,O   0)   -116.7454         0.010415   
     74. D(C   6,C   4,C   1,O   0)    121.6059         0.010415   
     75. D(C   6,C   4,C   1,C   2)    -61.6791         0.010415   
     76. D(O   5,C   4,C   1,C   2)    175.5932         0.010415   
     77. D(H  17,C   4,C   1,C   2)     59.9696         0.010415   
     78. D(O   5,C   4,C   1,O   0)     -1.1218         0.010415   
     79. D(H  18,O   5,C   4,H  17)     97.7648         0.017852   
     80. D(H  18,O   5,C   4,C   6)   -143.2286         0.017852   
     81. D(H  18,O   5,C   4,C   1)    -17.4425         0.017852   
     82. D(H  19,C   6,C   4,O   5)    -55.1381         0.010823   
     83. D(H  19,C   6,C   4,C   1)   -178.3818         0.010823   
     84. D(C   8,C   6,C   4,H  17)    179.7434         0.010823   
     85. D(C   8,C   6,C   4,O   5)     62.6127         0.010823   
     86. D(C   8,C   6,C   4,C   1)    -60.6309         0.010823   
     87. D(O   7,C   6,C   4,H  17)    -53.7096         0.010823   
     88. D(O   7,C   6,C   4,O   5)   -170.8402         0.010823   
     89. D(H  19,C   6,C   4,H  17)     61.9925         0.010823   
     90. D(O   7,C   6,C   4,C   1)     65.9162         0.010823   
     91. D(H  20,O   7,C   6,H  19)     87.4209         0.018301   
     92. D(H  20,O   7,C   6,C   8)    -28.9317         0.018301   
     93. D(H  20,O   7,C   6,C   4)   -156.4588         0.018301   
     94. D(O   9,C   8,C   6,C   4)     73.4112         0.010597   
     95. D(H  22,C   8,C   6,O   7)     69.0717         0.010597   
     96. D(H  22,C   8,C   6,C   4)   -165.4762         0.010597   
     97. D(H  21,C   8,C   6,H  19)     70.8339         0.010597   
     98. D(H  21,C   8,C   6,O   7)   -172.7816         0.010597   
     99. D(H  21,C   8,C   6,C   4)    -47.3295         0.010597   
    100. D(O   9,C   8,C   6,H  19)   -168.4254         0.010597   
    101. D(H  22,C   8,C   6,H  19)    -47.3128         0.010597   
    102. D(O   9,C   8,C   6,O   7)    -52.0409         0.010597   
    103. D(P  10,O   9,C   8,H  22)    -14.2490         0.019789   
    104. D(P  10,O   9,C   8,H  21)   -130.9669         0.019789   
    105. D(P  10,O   9,C   8,C   6)    106.5228         0.019789   
    106. D(O  13,P  10,O   9,C   8)    -47.5505         0.013232   
    107. D(O  12,P  10,O   9,C   8)     59.9564         0.013232   
    108. D(O  11,P  10,O   9,C   8)   -173.6741         0.013232   
    109. D(H  23,O  12,P  10,O  13)   -161.8377         0.013687   
    110. D(H  23,O  12,P  10,O  11)    -39.6142         0.013687   
    111. D(H  23,O  12,P  10,O   9)     88.8628         0.013687   
    112. D(H  24,O  13,P  10,O  12)     86.1211         0.013018   
    113. D(H  24,O  13,P  10,O  11)    -36.2120         0.013018   
    114. D(H  24,O  13,P  10,O   9)   -164.5490         0.013018   
    -----------------------------------------------------------------

Number of atoms                         .... 25
Number of degrees of freedom            .... 114

         *************************************************************
         *                GEOMETRY OPTIMIZATION CYCLE   1            *
         *************************************************************
---------------------------------
CARTESIAN COORDINATES (ANGSTROEM)
---------------------------------
  O    -1.545100   -0.458100   -2.411000
  C    -1.540000   -0.595500   -1.180400
  C    -2.284800    0.374300   -0.272100
  O    -3.228000    1.142900   -1.009400
  C    -0.843600   -1.796600   -0.536800
  O    -0.289700   -2.642000   -1.554300
  C     0.263800   -1.423100    0.457200
  O    -0.302200   -0.760200    1.591900
  C     1.411700   -0.614800   -0.169100
  O     0.999800    0.718400   -0.435000
  P     1.545800    1.893900    0.500500
  O     0.975900    3.247800    0.275400
  O     3.130600    1.842200    0.341100
  O     1.332800    1.361900    1.995200
  H    -2.833700   -0.184300    0.490000
  H    -1.579600    1.060300    0.200400
  H    -2.808100    1.334200   -1.871300
  H    -1.625600   -2.373200   -0.029400
  H    -0.735400   -2.389900   -2.390500
  H     0.702700   -2.359000    0.825300
  H     0.398800   -0.212200    2.007200
  H     1.752700   -1.064900   -1.106400
  H     2.267000   -0.610500    0.515900
  H     3.422800    2.398500   -0.405700
  H     1.411300    2.110200    2.619600

----------------------------
CARTESIAN COORDINATES (A.U.)
----------------------------
  NO LB    ZA    FRAG    MASS        X           Y           Z
   0 O   8.0000    0    15.999   -2.919816   -0.865684   -4.556130
   1 C   6.0000    0    12.011   -2.910178   -1.125332   -2.230633
   2 C   6.0000    0    12.011   -4.317646    0.707324   -0.514194
   3 O   8.0000    0    15.999   -6.100036    2.159768   -1.907490
   4 C   6.0000    0    12.011   -1.594173   -3.395082   -1.014405
   5 O   8.0000    0    15.999   -0.547454   -4.992656   -2.937201
   6 C   6.0000    0    12.011    0.498510   -2.689269    0.863983
   7 O   8.0000    0    15.999   -0.571075   -1.436570    3.008255
   8 C   6.0000    0    12.011    2.667726   -1.161804   -0.319553
   9 O   8.0000    0    15.999    1.889348    1.357579   -0.822031
  10 P  15.0000    0    30.974    2.921139    3.578952    0.945808
  11 O   8.0000    0    15.999    1.844184    6.137453    0.520431
  12 O   8.0000    0    15.999    5.915977    3.481253    0.644586
  13 O   8.0000    0    15.999    2.518627    2.573618    3.770382
  14 H   1.0000    0     1.008   -5.354917   -0.348277    0.925966
  15 H   1.0000    0     1.008   -2.985011    2.003677    0.378701
  16 H   1.0000    0     1.008   -5.306540    2.521273   -3.536245
  17 H   1.0000    0     1.008   -3.071939   -4.484698   -0.055558
  18 H   1.0000    0     1.008   -1.389705   -4.516256   -4.517390
  19 H   1.0000    0     1.008    1.327911   -4.457864    1.559591
  20 H   1.0000    0     1.008    0.753623   -0.401000    3.793058
  21 H   1.0000    0     1.008    3.312123   -2.012369   -2.090793
  22 H   1.0000    0     1.008    4.284009   -1.153678    0.974910
  23 H   1.0000    0     1.008    6.468155    4.532508   -0.766662
  24 H   1.0000    0     1.008    2.666970    3.987700    4.950327

      -----------------------------------------------------------      
     |                   =====================                   |     
     |                           x T B                           |     
     |                   =====================                   |     
     |                         S. Grimme                         |     
     |          Mulliken Center for Theoretical Chemistry        |     
     |                    University of Bonn                     |     
      -----------------------------------------------------------      

   * xtb version 6.5.1 (579679a) compiled by 'ehlert@majestix' on 2022-07-11

   xtb is free software: you can redistribute it and/or modify it under
   the terms of the GNU Lesser General Public License as published by
   the Free Software Foundation, either version 3 of the License, or
   (at your option) any later version.
   
   xtb is distributed in the hope that it will be useful,
   but WITHOUT ANY WARRANTY; without even the implied warranty of
   MERCHANTABILITY or FITNESS FOR A PARTICULAR PURPOSE.  See the
   GNU Lesser General Public License for more details.
   
   Cite this work as:
   * C. Bannwarth, E. Caldeweyher, S. Ehlert, A. Hansen, P. Pracht,
     J. Seibert, S. Spicher, S. Grimme, WIREs Comput. Mol. Sci., 2020, 11,
     e01493. DOI: 10.1002/wcms.1493
   
   for GFN2-xTB:
   * C. Bannwarth, S. Ehlert and S. Grimme., J. Chem. Theory Comput., 2019,
     15, 1652-1671. DOI: 10.1021/acs.jctc.8b01176
   for GFN1-xTB:
   * S. Grimme, C. Bannwarth, P. Shushkov, J. Chem. Theory Comput., 2017,
     13, 1989-2009. DOI: 10.1021/acs.jctc.7b00118
   for GFN0-xTB:
   * P. Pracht, E. Caldeweyher, S. Ehlert, S. Grimme, ChemRxiv, 2019, preprint.
     DOI: 10.26434/chemrxiv.8326202.v1
   for GFN-FF:
   * S. Spicher and S. Grimme, Angew. Chem. Int. Ed., 2020, 59, 15665-15673.
     DOI: 10.1002/anie.202004239
   
   for ALPB and GBSA implicit solvation:
   * S. Ehlert, M. Stahn, S. Spicher, S. Grimme, J. Chem. Theory Comput.,
     2021, 17, 4250-4261. DOI: 10.1021/acs.jctc.1c00471
   
   for DFT-D4:
   * E. Caldeweyher, C. Bannwarth and S. Grimme, J. Chem. Phys., 2017,
     147, 034112. DOI: 10.1063/1.4993215
   * E. Caldeweyher, S. Ehlert, A. Hansen, H. Neugebauer, S. Spicher,
     C. Bannwarth and S. Grimme, J. Chem. Phys., 2019, 150, 154122.
     DOI: 10.1063/1.5090222
   * E. Caldeweyher, J.-M. Mewes, S. Ehlert and S. Grimme, Phys. Chem. Chem. Phys.
     2020, 22, 8499-8512. DOI: 10.1039/D0CP00502A
   
   for sTDA-xTB:
   * S. Grimme and C. Bannwarth, J. Chem. Phys., 2016, 145, 054103.
     DOI: 10.1063/1.4959605
   
   in the mass-spec context:
   * V. Asgeirsson, C. Bauer and S. Grimme, Chem. Sci., 2017, 8, 4879.
     DOI: 10.1039/c7sc00601b
   * J. Koopman and S. Grimme, ACS Omega 2019, 4, 12, 15120-15133.
     DOI: 10.1021/acsomega.9b02011
   
   for metadynamics refer to:
   * S. Grimme, J. Chem. Theory Comput., 2019, 155, 2847-2862
     DOI: 10.1021/acs.jctc.9b00143
   
   for SPH calculations refer to:
   * S. Spicher and S. Grimme, J. Chem. Theory Comput., 2021, 17, 1701-1714
     DOI: 10.1021/acs.jctc.0c01306
   
   with help from (in alphabetical order)
   P. Atkinson, C. Bannwarth, F. Bohle, G. Brandenburg, E. Caldeweyher
   M. Checinski, S. Dohm, S. Ehlert, S. Ehrlich, I. Gerasimov, C. Hölzer
   A. Katbashev, J. Koopman, C. Lavigne, S. Lehtola, F. März, M. Müller,
   F. Musil, H. Neugebauer, J. Pisarek, C. Plett, P. Pracht, F. Pultar,
   J. Seibert, P. Shushkov, S. Spicher, M. Stahn, M. Steiner, T. Strunk,
   J. Stückrath, T. Rose, and J. Unsleber
   
 * started run on 2023/12/04 at 14:04:20.478     

           -------------------------------------------------
          |                Calculation Setup                |
           -------------------------------------------------

          program call               : otool_xtb /tmp/C00231_XTB.xyz --grad -c 0 -u 0 -P 1 --namespace /tmp/C00231 --input /tmp/C00231_XTB.input.tmp --acc 1.000000
          calculation namespace      : /tmp/C00231
          coordinate file            : /tmp/C00231_XTB.xyz
          omp threads                :                     1

   ID    Z sym.   atoms
    1    8 O      1, 4, 6, 8, 10, 12-14
    2    6 C      2, 3, 5, 7, 9
    3   15 P      11
    4    1 H      15-25

           -------------------------------------------------
          |                 G F N 2 - x T B                 |
           -------------------------------------------------

        Reference                      10.1021/acs.jctc.8b01176
      * Hamiltonian:
        H0-scaling (s, p, d)           1.850000    2.230000    2.230000
        zeta-weighting                 0.500000
      * Dispersion:
        s8                             2.700000
        a1                             0.520000
        a2                             5.000000
        s9                             5.000000
      * Repulsion:
        kExp                           1.500000    1.000000
        rExp                           1.000000
      * Coulomb:
        alpha                          2.000000
        third order                    shell-resolved
        anisotropic                    true
        a3                             3.000000
        a5                             4.000000
        cn-shift                       1.200000
        cn-exp                         4.000000
        max-rad                        5.000000


          ...................................................
          :                      SETUP                      :
          :.................................................:
          :  # basis functions                  73          :
          :  # atomic orbitals                  72          :
          :  # shells                           40          :
          :  # electrons                        84          :
          :  max. iterations                   250          :
          :  Hamiltonian                  GFN2-xTB          :
          :  restarted?                      false          :
          :  GBSA solvation                  false          :
          :  PC potential                    false          :
          :  electronic temp.          300.0000000     K    :
          :  accuracy                    1.0000000          :
          :  -> integral cutoff          0.2500000E+02      :
          :  -> integral neglect         0.1000000E-07      :
          :  -> SCF convergence          0.1000000E-05 Eh   :
          :  -> wf. convergence          0.1000000E-03 e    :
          :  Broyden damping             0.4000000          :
          ...................................................

 iter      E             dE          RMSdq      gap      omega  full diag
   1    -51.7195617 -0.517196E+02  0.638E+00    4.17       0.0  T
   2    -51.7905958 -0.710341E-01  0.355E+00    3.35       1.0  T
   3    -51.7937409 -0.314509E-02  0.147E+00    3.76       1.0  T
   4    -51.8099691 -0.162282E-01  0.608E-01    3.33       1.0  T
   5    -51.8110887 -0.111964E-02  0.223E-01    3.49       1.0  T
   6    -51.8113076 -0.218924E-03  0.734E-02    3.44       1.0  T
   7    -51.8113176 -0.997463E-05  0.312E-02    3.44       1.0  T
   8    -51.8113206 -0.296622E-05  0.117E-02    3.44       1.7  T
   9    -51.8113209 -0.323794E-06  0.502E-03    3.44       4.0  T
  10    -51.8113210 -0.135246E-06  0.158E-03    3.44      12.6  T
  11    -51.8113210 -0.500759E-08  0.635E-04    3.44      31.5  T
  12    -51.8113210 -0.214660E-08  0.305E-04    3.44      65.7  T

   *** convergence criteria satisfied after 12 iterations ***

         #    Occupation            Energy/Eh            Energy/eV
      -------------------------------------------------------------
         1        2.0000           -0.7684167             -20.9097
       ...           ...                  ...                  ...
        36        2.0000           -0.4743144             -12.9068
        37        2.0000           -0.4538792             -12.3507
        38        2.0000           -0.4515179             -12.2864
        39        2.0000           -0.4459387             -12.1346
        40        2.0000           -0.4334148             -11.7938
        41        2.0000           -0.4245567             -11.5528
        42        2.0000           -0.4093360             -11.1386 (HOMO)
        43                         -0.2828482              -7.6967 (LUMO)
        44                         -0.1056994              -2.8762
        45                         -0.0692791              -1.8852
        46                         -0.0474331              -1.2907
        47                         -0.0319765              -0.8701
       ...                                ...                  ...
        72                          1.2569912              34.2045
      -------------------------------------------------------------
                  HL-Gap            0.1264878 Eh            3.4419 eV
             Fermi-level           -0.3460921 Eh           -9.4176 eV

 SCC (total)                   0 d,  0 h,  0 min,  0.029 sec
 SCC setup                      ...        0 min,  0.000 sec (  0.576%)
 Dispersion                     ...        0 min,  0.000 sec (  0.587%)
 classical contributions        ...        0 min,  0.000 sec (  0.129%)
 integral evaluation            ...        0 min,  0.005 sec ( 15.519%)
 iterations                     ...        0 min,  0.012 sec ( 39.428%)
 molecular gradient             ...        0 min,  0.013 sec ( 43.205%)
 printout                       ...        0 min,  0.000 sec (  0.498%)

         :::::::::::::::::::::::::::::::::::::::::::::::::::::
         ::                     SUMMARY                     ::
         :::::::::::::::::::::::::::::::::::::::::::::::::::::
         :: total energy             -51.482065333620 Eh    ::
         :: gradient norm              0.096675422726 Eh/a0 ::
         :: HOMO-LUMO gap              3.441909133477 eV    ::
         ::.................................................::
         :: SCC energy               -51.811321029891 Eh    ::
         :: -> isotropic ES            0.205741554272 Eh    ::
         :: -> anisotropic ES         -0.005626539886 Eh    ::
         :: -> anisotropic XC         -0.002599929271 Eh    ::
         :: -> dispersion             -0.022926316518 Eh    ::
         :: repulsion energy           0.328946400553 Eh    ::
         :: add. restraining           0.000000000000 Eh    ::
         :: total charge              -0.000000000000 e     ::
         :::::::::::::::::::::::::::::::::::::::::::::::::::::


Property printout bound to 'properties.out'

           -------------------------------------------------
          | TOTAL ENERGY              -51.482065333620 Eh   |
          | GRADIENT NORM               0.096675422726 Eh/α |
          | HOMO-LUMO GAP               3.441909133477 eV   |
           -------------------------------------------------

------------------------------------------------------------------------
 * finished run on 2023/12/04 at 14:04:20.519     
------------------------------------------------------------------------
 total:
 * wall-time:     0 d,  0 h,  0 min,  0.040 sec
 *  cpu-time:     0 d,  0 h,  0 min,  0.040 sec
 * ratio c/w:     0.992 speedup
 SCF:
 * wall-time:     0 d,  0 h,  0 min,  0.030 sec
 *  cpu-time:     0 d,  0 h,  0 min,  0.028 sec
 * ratio c/w:     0.945 speedup


-------------------------   --------------------
FINAL SINGLE POINT ENERGY       -51.482065333620
-------------------------   --------------------

------------------------------------------------------------------------------
                         ORCA GEOMETRY RELAXATION STEP
------------------------------------------------------------------------------

Reading the OPT-File                    .... done
Getting information on internals        .... done
Copying old internal coords+grads       .... done
Making the new internal coordinates     .... (new redundants).... done
Validating the new internal coordinates .... (new redundants).... done
Calculating the B-matrix                .... done
Calculating the G,G- and P matrices     .... done
Transforming gradient to internals      .... done
Projecting the internal gradient        .... done
Number of atoms                         ....  25
Number of internal coordinates          .... 114
Current Energy                          ....   -51.482065334 Eh
Current gradient norm                   ....     0.096675423 Eh/bohr
Maximum allowed component of the step   ....  0.300
Current trust radius                    ....  0.300
Evaluating the initial hessian          ....  (Almloef) done
Projecting the Hessian                  .... done
Forming the augmented Hessian           .... done
Diagonalizing the augmented Hessian     .... done
Last element of RFO vector              ....  0.936214030
Lowest eigenvalues of augmented Hessian:
 -0.014938139  0.010511356  0.010612416  0.010799262  0.010860009
Length of the computed step             ....  0.375373939
Warning: the length of the step is outside the trust region - taking restricted step instead
The input lambda is                     ....    -0.014938
   iter:   1  x=   -0.022512  g=    6.721514 f(x)=     0.050906
   iter:   2  x=   -0.025978  g=    3.724448 f(x)=     0.012910
   iter:   3  x=   -0.026448  g=    2.962820 f(x)=     0.001391
   iter:   4  x=   -0.026455  g=    2.877064 f(x)=     0.000020
   iter:   5  x=   -0.026455  g=    2.875804 f(x)=     0.000000
   iter:   6  x=   -0.026455  g=    2.875804 f(x)=     0.000000
The output lambda is                    ....    -0.026455 (6 iterations)
The final length of the internal step   ....  0.300000000
Converting the step to cartesian space:
 Initial RMS(Int)=    0.0280975743
Transforming coordinates:
 Iter   0:  RMS(Cart)=    0.1684427579 RMS(Int)=    0.5878741452
 Iter   1:  RMS(Cart)=    0.0112520929 RMS(Int)=    0.0049279183
 Iter   2:  RMS(Cart)=    0.0011030247 RMS(Int)=    0.0002397619
 Iter   3:  RMS(Cart)=    0.0001486136 RMS(Int)=    0.0000744137
 Iter   4:  RMS(Cart)=    0.0000153629 RMS(Int)=    0.0000046700
 Iter   5:  RMS(Cart)=    0.0000020514 RMS(Int)=    0.0000012151
 Iter   6:  RMS(Cart)=    0.0000002301 RMS(Int)=    0.0000000931
 Iter   7:  RMS(Cart)=    0.0000000304 RMS(Int)=    0.0000000210
done
Storing new coordinates                 .... done

                                .--------------------.
          ----------------------|Geometry convergence|-------------------------
          Item                value                   Tolerance       Converged
          ---------------------------------------------------------------------
          RMS gradient        0.0074220298            0.0001000000      NO
          MAX gradient        0.0424565808            0.0003000000      NO
          RMS step            0.0280975743            0.0020000000      NO
          MAX step            0.1495375848            0.0040000000      NO
          ........................................................
          Max(Bonds)      0.0224      Max(Angles)    2.30
          Max(Dihed)        8.57      Max(Improp)    0.00
          ---------------------------------------------------------------------

The optimization has not yet converged - more geometry cycles are needed


    ---------------------------------------------------------------------------
                         Redundant Internal Coordinates
                            (Angstroem and degrees)

        Definition                    Value    dE/dq     Step     New-Value
    ----------------------------------------------------------------------------
     1. B(C   1,O   0)                1.2383  0.042457 -0.0224    1.2159   
     2. B(C   2,C   1)                1.5232  0.011823 -0.0153    1.5080   
     3. B(O   3,C   2)                1.4227  0.011959 -0.0121    1.4106   
     4. B(C   4,C   1)                1.5303  0.008274 -0.0110    1.5193   
     5. B(O   5,C   4)                1.4342  0.017706 -0.0187    1.4155   
     6. B(C   6,C   4)                1.5342  0.005124 -0.0069    1.5274   
     7. B(O   7,C   6)                1.4309  0.016420 -0.0171    1.4137   
     8. B(C   8,C   6)                1.5373  0.001790 -0.0024    1.5349   
     9. B(O   9,C   8)                1.4205 -0.002393  0.0024    1.4229   
    10. B(P  10,O   9)                1.5985  0.005689 -0.0033    1.5951   
    11. B(O  11,P  10)                1.4861  0.034961 -0.0137    1.4724   
    12. B(O  12,P  10)                1.5936 -0.004911  0.0028    1.5965   
    13. B(O  13,P  10)                1.6008  0.001425 -0.0008    1.5999   
    14. B(H  14,C   2)                1.0928  0.001609 -0.0022    1.0905   
    15. B(H  15,C   2)                1.0914 -0.003984  0.0055    1.0969   
    16. B(H  16,O   3)                0.9776  0.008016 -0.0083    0.9694   
    17. B(H  17,C   4)                1.0961 -0.002789  0.0039    1.1000   
    18. B(H  18,O   5)                0.9805  0.007568 -0.0079    0.9727   
    19. B(H  19,C   6)                1.0973 -0.003528  0.0050    1.1022   
    20. B(H  20,O   7)                0.9819  0.013662 -0.0143    0.9676   
    21. B(H  21,C   8)                1.0943  0.000781 -0.0011    1.0932   
    22. B(H  22,C   8)                1.0958  0.000400 -0.0006    1.0952   
    23. B(H  23,O  12)                0.9760  0.016939 -0.0173    0.9586   
    24. B(H  24,O  13)                0.9777  0.016999 -0.0175    0.9602   
    25. A(C   2,C   1,C   4)          118.13 -0.001352    0.20    118.33   
    26. A(O   0,C   1,C   2)          121.33 -0.001420    0.18    121.51   
    27. A(O   0,C   1,C   4)          120.46  0.002750   -0.35    120.11   
    28. A(O   3,C   2,H  14)          107.73  0.000341    0.07    107.80   
    29. A(C   1,C   2,H  15)          110.02  0.004440   -0.89    109.13   
    30. A(C   1,C   2,H  14)          109.63 -0.002524    0.39    110.02   
    31. A(C   1,C   2,O   3)          111.05  0.001343   -0.06    110.98   
    32. A(O   3,C   2,H  15)          108.25 -0.005108    1.04    109.29   
    33. A(H  14,C   2,H  15)          110.12  0.001418   -0.52    109.59   
    34. A(C   2,O   3,H  16)          106.13 -0.002740    0.41    106.55   
    35. A(C   1,C   4,C   6)          114.20  0.001446   -0.68    113.51   
    36. A(C   1,C   4,H  17)          106.43 -0.001759    0.62    107.06   
    37. A(C   1,C   4,O   5)          109.88 -0.000598   -0.04    109.84   
    38. A(C   6,C   4,H  17)          110.07  0.001989   -0.50    109.56   
    39. A(O   5,C   4,C   6)          108.93  0.002049   -0.65    108.28   
    40. A(O   5,C   4,H  17)          107.09 -0.003553    1.42    108.51   
    41. A(C   4,O   5,H  18)          106.14  0.000206   -0.03    106.11   
    42. A(O   7,C   6,H  19)          106.70 -0.000685    1.27    107.97   
    43. A(C   4,C   6,H  19)          107.36 -0.002753    0.14    107.51   
    44. A(C   4,C   6,O   7)          109.94  0.004259   -1.29    108.65   
    45. A(O   7,C   6,C   8)          112.02 -0.010023    1.79    113.80   
    46. A(C   4,C   6,C   8)          113.77  0.009878   -2.28    111.48   
    47. A(C   8,C   6,H  19)          106.65 -0.001263    0.61    107.26   
    48. A(C   6,O   7,H  20)          108.15 -0.001814    0.28    108.43   
    49. A(C   6,C   8,O   9)          110.68 -0.007838    1.09    111.78   
    50. A(H  21,C   8,H  22)          107.09 -0.003540    0.73    107.82   
    51. A(O   9,C   8,H  22)          109.86  0.001708    0.54    110.40   
    52. A(C   6,C   8,H  22)          109.28 -0.002150    1.00    110.28   
    53. A(O   9,C   8,H  21)          108.43  0.002388   -1.07    107.35   
    54. A(C   6,C   8,H  21)          111.43  0.009619   -2.30    109.13   
    55. A(C   8,O   9,P  10)          118.79 -0.012217    1.41    120.20   
    56. A(O  11,P  10,O  12)          113.31 -0.004184    0.42    113.73   
    57. A(O   9,P  10,O  12)          104.91 -0.001086   -0.04    104.87   
    58. A(O   9,P  10,O  11)          116.77  0.007323   -0.82    115.95   
    59. A(O  12,P  10,O  13)          102.41  0.008533   -0.95    101.46   
    60. A(O  11,P  10,O  13)          113.15 -0.004811    0.70    113.86   
    61. A(O   9,P  10,O  13)          104.87 -0.005450    0.64    105.51   
    62. A(P  10,O  12,H  23)          110.84  0.002332   -0.30    110.54   
    63. A(P  10,O  13,H  24)          109.35  0.002442   -0.32    109.03   
    64. D(O   3,C   2,C   1,O   0)     16.49 -0.000889    0.39     16.87   
    65. D(O   3,C   2,C   1,C   4)   -160.20 -0.000541   -0.25   -160.45   
    66. D(H  14,C   2,C   1,O   0)    135.42 -0.001242    0.68    136.10   
    67. D(H  15,C   2,C   1,O   0)   -103.34  0.001731   -0.29   -103.63   
    68. D(H  15,C   2,C   1,C   4)     79.98  0.002079   -0.93     79.05   
    69. D(H  14,C   2,C   1,C   4)    -41.27 -0.000893    0.04    -41.23   
    70. D(H  16,O   3,C   2,C   1)    -37.54 -0.002277    1.04    -36.50   
    71. D(H  16,O   3,C   2,H  15)     83.34  0.000735    0.57     83.91   
    72. D(H  16,O   3,C   2,H  14)   -157.61 -0.000197    0.56   -157.05   
    73. D(H  17,C   4,C   1,O   0)   -116.75  0.001924    0.13   -116.62   
    74. D(C   6,C   4,C   1,O   0)    121.61 -0.000239    0.74    122.35   
    75. D(C   6,C   4,C   1,C   2)    -61.68 -0.000726    1.39    -60.28   
    76. D(O   5,C   4,C   1,C   2)    175.59 -0.003993    2.77    178.36   
    77. D(H  17,C   4,C   1,C   2)     59.97  0.001436    0.78     60.75   
    78. D(O   5,C   4,C   1,O   0)     -1.12 -0.003505    2.12      1.00   
    79. D(H  18,O   5,C   4,H  17)     97.76 -0.003675    2.81    100.57   
    80. D(H  18,O   5,C   4,C   6)   -143.23 -0.002201    2.65   -140.57   
    81. D(H  18,O   5,C   4,C   1)    -17.44  0.000638    1.31    -16.13   
    82. D(H  19,C   6,C   4,O   5)    -55.14  0.000131    0.21    -54.93   
    83. D(H  19,C   6,C   4,C   1)   -178.38 -0.001670    1.24   -177.14   
    84. D(C   8,C   6,C   4,H  17)    179.74  0.000567    0.78    180.53   
    85. D(C   8,C   6,C   4,O   5)     62.61  0.002522   -0.27     62.34   
    86. D(C   8,C   6,C   4,C   1)    -60.63  0.000721    0.76    -59.87   
    87. D(O   7,C   6,C   4,H  17)    -53.71 -0.001712    0.35    -53.36   
    88. D(O   7,C   6,C   4,O   5)   -170.84  0.000243   -0.70   -171.54   
    89. D(H  19,C   6,C   4,H  17)     61.99 -0.001824    1.26     63.25   
    90. D(O   7,C   6,C   4,C   1)     65.92 -0.001558    0.33     66.24   
    91. D(H  20,O   7,C   6,H  19)     87.42 -0.002132    0.98     88.40   
    92. D(H  20,O   7,C   6,C   8)    -28.93  0.005162   -1.47    -30.40   
    93. D(H  20,O   7,C   6,C   4)   -156.46 -0.003579    1.19   -155.27   
    94. D(O   9,C   8,C   6,C   4)     73.41  0.004346   -2.15     71.26   
    95. D(H  22,C   8,C   6,O   7)     69.07 -0.005410    1.99     71.06   
    96. D(H  22,C   8,C   6,C   4)   -165.48  0.000080   -0.13   -165.61   
    97. D(H  21,C   8,C   6,H  19)     70.83  0.001636   -0.72     70.11   
    98. D(H  21,C   8,C   6,O   7)   -172.78 -0.005301    2.13   -170.65   
    99. D(H  21,C   8,C   6,C   4)    -47.33  0.000189    0.01    -47.32   
   100. D(O   9,C   8,C   6,H  19)   -168.43  0.005794   -2.89   -171.31   
   101. D(H  22,C   8,C   6,H  19)    -47.31  0.001528   -0.86    -48.17   
   102. D(O   9,C   8,C   6,O   7)    -52.04 -0.001143   -0.04    -52.08   
   103. D(P  10,O   9,C   8,H  22)    -14.25 -0.003955    6.26     -7.99   
   104. D(P  10,O   9,C   8,H  21)   -130.97 -0.002023    5.69   -125.28   
   105. D(P  10,O   9,C   8,C   6)    106.52 -0.010578    8.57    115.09   
   106. D(O  13,P  10,O   9,C   8)    -47.55 -0.005526    2.44    -45.11   
   107. D(O  12,P  10,O   9,C   8)     59.96  0.001458    1.62     61.57   
   108. D(O  11,P  10,O   9,C   8)   -173.67  0.000176    1.56   -172.11   
   109. D(H  23,O  12,P  10,O  13)   -161.84 -0.000923    0.96   -160.88   
   110. D(H  23,O  12,P  10,O  11)    -39.61 -0.003448    1.41    -38.20   
   111. D(H  23,O  12,P  10,O   9)     88.86  0.002280    0.61     89.48   
   112. D(H  24,O  13,P  10,O  12)     86.12 -0.001216    0.84     86.96   
   113. D(H  24,O  13,P  10,O  11)    -36.21  0.000897    0.57    -35.64   
   114. D(H  24,O  13,P  10,O   9)   -164.55 -0.001113    0.66   -163.89   
    ----------------------------------------------------------------------------

         *************************************************************
         *                GEOMETRY OPTIMIZATION CYCLE   2            *
         *************************************************************
---------------------------------
CARTESIAN COORDINATES (ANGSTROEM)
---------------------------------
  O    -1.431095   -0.383679   -2.373396
  C    -1.490206   -0.577256   -1.174489
  C    -2.250250    0.352634   -0.262586
  O    -3.138183    1.166179   -0.997027
  C    -0.841836   -1.810526   -0.568615
  O    -0.212820   -2.570182   -1.583953
  C     0.198435   -1.488122    0.502229
  O    -0.457903   -0.902683    1.609102
  C     1.340356   -0.632259   -0.062868
  O     0.915893    0.697411   -0.339331
  P     1.531340    1.922217    0.476439
  O     0.900757    3.232374    0.244602
  O     3.092545    1.892667    0.144053
  O     1.523851    1.462541    2.008908
  H    -2.839436   -0.223734    0.451506
  H    -1.537909    0.988778    0.276896
  H    -2.692528    1.377989   -1.831435
  H    -1.648194   -2.415635   -0.128571
  H    -0.576069   -2.247517   -2.426563
  H     0.639179   -2.442205    0.834497
  H     0.181000   -0.358635    2.090920
  H     1.682043   -1.068006   -1.005419
  H     2.188252   -0.625384    0.630374
  H     3.280616    2.418991   -0.634802
  H     1.642063    2.234343    2.567831

----------------------------
CARTESIAN COORDINATES (A.U.)
----------------------------
  NO LB    ZA    FRAG    MASS        X           Y           Z
   0 O   8.0000    0    15.999   -2.704377   -0.725048   -4.485068
   1 C   6.0000    0    12.011   -2.816081   -1.090856   -2.219463
   2 C   6.0000    0    12.011   -4.252357    0.666381   -0.496216
   3 O   8.0000    0    15.999   -5.930307    2.203759   -1.884109
   4 C   6.0000    0    12.011   -1.590840   -3.421398   -1.074527
   5 O   8.0000    0    15.999   -0.402172   -4.856941   -2.993238
   6 C   6.0000    0    12.011    0.374988   -2.812143    0.949074
   7 O   8.0000    0    15.999   -0.865311   -1.705824    3.040762
   8 C   6.0000    0    12.011    2.532906   -1.194797   -0.118803
   9 O   8.0000    0    15.999    1.730788    1.317915   -0.641243
  10 P  15.0000    0    30.974    2.893813    3.632463    0.900339
  11 O   8.0000    0    15.999    1.702185    6.108302    0.462232
  12 O   8.0000    0    15.999    5.844064    3.576623    0.272220
  13 O   8.0000    0    15.999    2.879661    2.763802    3.796286
  14 H   1.0000    0     1.008   -5.365757   -0.422795    0.853222
  15 H   1.0000    0     1.008   -2.906226    1.868520    0.523258
  16 H   1.0000    0     1.008   -5.088140    2.604022   -3.460912
  17 H   1.0000    0     1.008   -3.114636   -4.564888   -0.242963
  18 H   1.0000    0     1.008   -1.088613   -4.247191   -4.585539
  19 H   1.0000    0     1.008    1.207873   -4.615099    1.576971
  20 H   1.0000    0     1.008    0.342040   -0.677722    3.951267
  21 H   1.0000    0     1.008    3.178601   -2.018239   -1.899967
  22 H   1.0000    0     1.008    4.135196   -1.181805    1.191234
  23 H   1.0000    0     1.008    6.199465    4.571230   -1.199602
  24 H   1.0000    0     1.008    3.103049    4.222296    4.852497

      -----------------------------------------------------------      
     |                   =====================                   |     
     |                           x T B                           |     
     |                   =====================                   |     
     |                         S. Grimme                         |     
     |          Mulliken Center for Theoretical Chemistry        |     
     |                    University of Bonn                     |     
      -----------------------------------------------------------      

   * xtb version 6.5.1 (579679a) compiled by 'ehlert@majestix' on 2022-07-11

   xtb is free software: you can redistribute it and/or modify it under
   the terms of the GNU Lesser General Public License as published by
   the Free Software Foundation, either version 3 of the License, or
   (at your option) any later version.
   
   xtb is distributed in the hope that it will be useful,
   but WITHOUT ANY WARRANTY; without even the implied warranty of
   MERCHANTABILITY or FITNESS FOR A PARTICULAR PURPOSE.  See the
   GNU Lesser General Public License for more details.
   
   Cite this work as:
   * C. Bannwarth, E. Caldeweyher, S. Ehlert, A. Hansen, P. Pracht,
     J. Seibert, S. Spicher, S. Grimme, WIREs Comput. Mol. Sci., 2020, 11,
     e01493. DOI: 10.1002/wcms.1493
   
   for GFN2-xTB:
   * C. Bannwarth, S. Ehlert and S. Grimme., J. Chem. Theory Comput., 2019,
     15, 1652-1671. DOI: 10.1021/acs.jctc.8b01176
   for GFN1-xTB:
   * S. Grimme, C. Bannwarth, P. Shushkov, J. Chem. Theory Comput., 2017,
     13, 1989-2009. DOI: 10.1021/acs.jctc.7b00118
   for GFN0-xTB:
   * P. Pracht, E. Caldeweyher, S. Ehlert, S. Grimme, ChemRxiv, 2019, preprint.
     DOI: 10.26434/chemrxiv.8326202.v1
   for GFN-FF:
   * S. Spicher and S. Grimme, Angew. Chem. Int. Ed., 2020, 59, 15665-15673.
     DOI: 10.1002/anie.202004239
   
   for ALPB and GBSA implicit solvation:
   * S. Ehlert, M. Stahn, S. Spicher, S. Grimme, J. Chem. Theory Comput.,
     2021, 17, 4250-4261. DOI: 10.1021/acs.jctc.1c00471
   
   for DFT-D4:
   * E. Caldeweyher, C. Bannwarth and S. Grimme, J. Chem. Phys., 2017,
     147, 034112. DOI: 10.1063/1.4993215
   * E. Caldeweyher, S. Ehlert, A. Hansen, H. Neugebauer, S. Spicher,
     C. Bannwarth and S. Grimme, J. Chem. Phys., 2019, 150, 154122.
     DOI: 10.1063/1.5090222
   * E. Caldeweyher, J.-M. Mewes, S. Ehlert and S. Grimme, Phys. Chem. Chem. Phys.
     2020, 22, 8499-8512. DOI: 10.1039/D0CP00502A
   
   for sTDA-xTB:
   * S. Grimme and C. Bannwarth, J. Chem. Phys., 2016, 145, 054103.
     DOI: 10.1063/1.4959605
   
   in the mass-spec context:
   * V. Asgeirsson, C. Bauer and S. Grimme, Chem. Sci., 2017, 8, 4879.
     DOI: 10.1039/c7sc00601b
   * J. Koopman and S. Grimme, ACS Omega 2019, 4, 12, 15120-15133.
     DOI: 10.1021/acsomega.9b02011
   
   for metadynamics refer to:
   * S. Grimme, J. Chem. Theory Comput., 2019, 155, 2847-2862
     DOI: 10.1021/acs.jctc.9b00143
   
   for SPH calculations refer to:
   * S. Spicher and S. Grimme, J. Chem. Theory Comput., 2021, 17, 1701-1714
     DOI: 10.1021/acs.jctc.0c01306
   
   with help from (in alphabetical order)
   P. Atkinson, C. Bannwarth, F. Bohle, G. Brandenburg, E. Caldeweyher
   M. Checinski, S. Dohm, S. Ehlert, S. Ehrlich, I. Gerasimov, C. Hölzer
   A. Katbashev, J. Koopman, C. Lavigne, S. Lehtola, F. März, M. Müller,
   F. Musil, H. Neugebauer, J. Pisarek, C. Plett, P. Pracht, F. Pultar,
   J. Seibert, P. Shushkov, S. Spicher, M. Stahn, M. Steiner, T. Strunk,
   J. Stückrath, T. Rose, and J. Unsleber
   
 * started run on 2023/12/04 at 14:04:20.596     

           -------------------------------------------------
          |                Calculation Setup                |
           -------------------------------------------------

          program call               : otool_xtb /tmp/C00231_XTB.xyz --grad -c 0 -u 0 -P 1 --namespace /tmp/C00231 --input /tmp/C00231_XTB.input.tmp --acc 1.000000
          calculation namespace      : /tmp/C00231
          coordinate file            : /tmp/C00231_XTB.xyz
          omp threads                :                     1

   ID    Z sym.   atoms
    1    8 O      1, 4, 6, 8, 10, 12-14
    2    6 C      2, 3, 5, 7, 9
    3   15 P      11
    4    1 H      15-25

           -------------------------------------------------
          |                 G F N 2 - x T B                 |
           -------------------------------------------------

        Reference                      10.1021/acs.jctc.8b01176
      * Hamiltonian:
        H0-scaling (s, p, d)           1.850000    2.230000    2.230000
        zeta-weighting                 0.500000
      * Dispersion:
        s8                             2.700000
        a1                             0.520000
        a2                             5.000000
        s9                             5.000000
      * Repulsion:
        kExp                           1.500000    1.000000
        rExp                           1.000000
      * Coulomb:
        alpha                          2.000000
        third order                    shell-resolved
        anisotropic                    true
        a3                             3.000000
        a5                             4.000000
        cn-shift                       1.200000
        cn-exp                         4.000000
        max-rad                        5.000000

q/qsh data taken from xtbrestart
CAMM data taken from xtbrestart

          ...................................................
          :                      SETUP                      :
          :.................................................:
          :  # basis functions                  73          :
          :  # atomic orbitals                  72          :
          :  # shells                           40          :
          :  # electrons                        84          :
          :  max. iterations                   250          :
          :  Hamiltonian                  GFN2-xTB          :
          :  restarted?                       true          :
          :  GBSA solvation                  false          :
          :  PC potential                    false          :
          :  electronic temp.          300.0000000     K    :
          :  accuracy                    1.0000000          :
          :  -> integral cutoff          0.2500000E+02      :
          :  -> integral neglect         0.1000000E-07      :
          :  -> SCF convergence          0.1000000E-05 Eh   :
          :  -> wf. convergence          0.1000000E-03 e    :
          :  Broyden damping             0.4000000          :
          ...................................................

 iter      E             dE          RMSdq      gap      omega  full diag
   1    -51.8401550 -0.518402E+02  0.406E-01    3.63       0.0  T
   2    -51.8402717 -0.116731E-03  0.252E-01    3.59       1.0  T
   3    -51.8402437  0.280441E-04  0.605E-02    3.61       1.0  T
   4    -51.8402906 -0.469523E-04  0.171E-02    3.59       1.2  T
   5    -51.8402936 -0.299544E-05  0.709E-03    3.59       2.8  T
   6    -51.8402938 -0.202108E-06  0.317E-03    3.59       6.3  T
   7    -51.8402938 -0.211263E-07  0.124E-03    3.59      16.2  T
   8    -51.8402938 -0.265839E-08  0.284E-04    3.59      70.5  T
   9    -51.8402938 -0.215088E-09  0.115E-04    3.59     174.5  T

   *** convergence criteria satisfied after 9 iterations ***

         #    Occupation            Energy/Eh            Energy/eV
      -------------------------------------------------------------
         1        2.0000           -0.7652395             -20.8232
       ...           ...                  ...                  ...
        36        2.0000           -0.4748422             -12.9211
        37        2.0000           -0.4547152             -12.3734
        38        2.0000           -0.4524093             -12.3107
        39        2.0000           -0.4479000             -12.1880
        40        2.0000           -0.4352811             -11.8446
        41        2.0000           -0.4244674             -11.5503
        42        2.0000           -0.4082529             -11.1091 (HOMO)
        43                         -0.2762584              -7.5174 (LUMO)
        44                         -0.1015085              -2.7622
        45                         -0.0565068              -1.5376
        46                         -0.0405126              -1.1024
        47                         -0.0129203              -0.3516
       ...                                ...                  ...
        72                          1.2694248              34.5428
      -------------------------------------------------------------
                  HL-Gap            0.1319945 Eh            3.5918 eV
             Fermi-level           -0.3422557 Eh           -9.3133 eV

 SCC (total)                   0 d,  0 h,  0 min,  0.033 sec
 SCC setup                      ...        0 min,  0.000 sec (  0.517%)
 Dispersion                     ...        0 min,  0.000 sec (  0.529%)
 classical contributions        ...        0 min,  0.000 sec (  0.114%)
 integral evaluation            ...        0 min,  0.004 sec ( 13.208%)
 iterations                     ...        0 min,  0.011 sec ( 31.740%)
 molecular gradient             ...        0 min,  0.018 sec ( 53.400%)
 printout                       ...        0 min,  0.000 sec (  0.438%)

         :::::::::::::::::::::::::::::::::::::::::::::::::::::
         ::                     SUMMARY                     ::
         :::::::::::::::::::::::::::::::::::::::::::::::::::::
         :: total energy             -51.488534450944 Eh    ::
         :: gradient norm              0.045531584737 Eh/a0 ::
         :: HOMO-LUMO gap              3.591752189730 eV    ::
         ::.................................................::
         :: SCC energy               -51.840293831671 Eh    ::
         :: -> isotropic ES            0.202457415760 Eh    ::
         :: -> anisotropic ES         -0.006100307274 Eh    ::
         :: -> anisotropic XC         -0.003804718514 Eh    ::
         :: -> dispersion             -0.023023191072 Eh    ::
         :: repulsion energy           0.351440185526 Eh    ::
         :: add. restraining           0.000000000000 Eh    ::
         :: total charge              -0.000000000000 e     ::
         :::::::::::::::::::::::::::::::::::::::::::::::::::::


Property printout bound to 'properties.out'

           -------------------------------------------------
          | TOTAL ENERGY              -51.488534450944 Eh   |
          | GRADIENT NORM               0.045531584737 Eh/α |
          | HOMO-LUMO GAP               3.591752189730 eV   |
           -------------------------------------------------

------------------------------------------------------------------------
 * finished run on 2023/12/04 at 14:04:20.640     
------------------------------------------------------------------------
 total:
 * wall-time:     0 d,  0 h,  0 min,  0.044 sec
 *  cpu-time:     0 d,  0 h,  0 min,  0.044 sec
 * ratio c/w:     1.004 speedup
 SCF:
 * wall-time:     0 d,  0 h,  0 min,  0.033 sec
 *  cpu-time:     0 d,  0 h,  0 min,  0.032 sec
 * ratio c/w:     0.963 speedup


-------------------------   --------------------
FINAL SINGLE POINT ENERGY       -51.488534450940
-------------------------   --------------------

------------------------------------------------------------------------------
                         ORCA GEOMETRY RELAXATION STEP
------------------------------------------------------------------------------

Reading the OPT-File                    .... done
Getting information on internals        .... done
Copying old internal coords+grads       .... done
Making the new internal coordinates     .... (new redundants).... done
Validating the new internal coordinates .... (new redundants).... done
Calculating the B-matrix                .... done
Calculating the G,G- and P matrices     .... done
Transforming gradient to internals      .... done
Projecting the internal gradient        .... done
Number of atoms                         ....  25
Number of internal coordinates          .... 114
Current Energy                          ....   -51.488534451 Eh
Current gradient norm                   ....     0.045531585 Eh/bohr
Maximum allowed component of the step   ....  0.300
Current trust radius                    ....  0.300
Updating the Hessian (BFGS)             .... done
Forming the augmented Hessian           .... done
Diagonalizing the augmented Hessian     .... done
Last element of RFO vector              ....  0.961772518
Lowest eigenvalues of augmented Hessian:
 -0.004877632  0.010491884  0.010666918  0.010832709  0.010850997
Length of the computed step             ....  0.284734311
The final length of the internal step   ....  0.284734311
Converting the step to cartesian space:
 Initial RMS(Int)=    0.0266678116
Transforming coordinates:
 Iter   0:  RMS(Cart)=    0.1288245242 RMS(Int)=    0.0265055327
 Iter   1:  RMS(Cart)=    0.0050786153 RMS(Int)=    0.0019302088
 Iter   2:  RMS(Cart)=    0.0003548109 RMS(Int)=    0.0001029508
 Iter   3:  RMS(Cart)=    0.0000304884 RMS(Int)=    0.0000136490
 Iter   4:  RMS(Cart)=    0.0000022296 RMS(Int)=    0.0000008545
 Iter   5:  RMS(Cart)=    0.0000001956 RMS(Int)=    0.0000000965
 Iter   6:  RMS(Cart)=    0.0000000151 RMS(Int)=    0.0000000072
done
Storing new coordinates                 .... done

                                .--------------------.
          ----------------------|Geometry convergence|-------------------------
          Item                value                   Tolerance       Converged
          ---------------------------------------------------------------------
          Energy change      -0.0064691173            0.0000050000      NO
          RMS gradient        0.0033244131            0.0001000000      NO
          MAX gradient        0.0202095845            0.0003000000      NO
          RMS step            0.0266678116            0.0020000000      NO
          MAX step            0.1023854512            0.0040000000      NO
          ........................................................
          Max(Bonds)      0.0157      Max(Angles)    1.68
          Max(Dihed)        5.87      Max(Improp)    0.00
          ---------------------------------------------------------------------

The optimization has not yet converged - more geometry cycles are needed


    ---------------------------------------------------------------------------
                         Redundant Internal Coordinates
                            (Angstroem and degrees)

        Definition                    Value    dE/dq     Step     New-Value
    ----------------------------------------------------------------------------
     1. B(C   1,O   0)                1.2159  0.008897 -0.0150    1.2009   
     2. B(C   2,C   1)                1.5080  0.000686 -0.0076    1.5004   
     3. B(O   3,C   2)                1.4106  0.004719 -0.0106    1.3999   
     4. B(C   4,C   1)                1.5193 -0.002190 -0.0013    1.5180   
     5. B(O   5,C   4)                1.4155  0.006367 -0.0157    1.3998   
     6. B(C   6,C   4)                1.5274 -0.005450  0.0055    1.5329   
     7. B(O   7,C   6)                1.4137  0.004484 -0.0127    1.4011   
     8. B(C   8,C   6)                1.5349  0.005257 -0.0093    1.5256   
     9. B(O   9,C   8)                1.4229  0.003605 -0.0031    1.4198   
    10. B(P  10,O   9)                1.5951  0.009474 -0.0077    1.5874   
    11. B(O  11,P  10)                1.4724  0.020210 -0.0148    1.4576   
    12. B(O  12,P  10)                1.5965 -0.004685  0.0043    1.6007   
    13. B(O  13,P  10)                1.5999  0.000617 -0.0008    1.5992   
    14. B(H  14,C   2)                1.0905 -0.000345 -0.0004    1.0901   
    15. B(H  15,C   2)                1.0969 -0.001369  0.0045    1.1014   
    16. B(H  16,O   3)                0.9694  0.001171 -0.0049    0.9645   
    17. B(H  17,C   4)                1.1000 -0.001232  0.0037    1.1037   
    18. B(H  18,O   5)                0.9727  0.000078 -0.0035    0.9692   
    19. B(H  19,C   6)                1.1022 -0.000571  0.0030    1.1053   
    20. B(H  20,O   7)                0.9676  0.001312 -0.0077    0.9599   
    21. B(H  21,C   8)                1.0932 -0.000740  0.0007    1.0939   
    22. B(H  22,C   8)                1.0952  0.001025 -0.0019    1.0933   
    23. B(H  23,O  12)                0.9586  0.002813 -0.0107    0.9479   
    24. B(H  24,O  13)                0.9602  0.004206 -0.0125    0.9478   
    25. A(C   2,C   1,C   4)          118.33 -0.002231    0.42    118.74   
    26. A(O   0,C   1,C   2)          121.51 -0.000776    0.15    121.66   
    27. A(O   0,C   1,C   4)          120.11  0.003019   -0.63    119.49   
    28. A(O   3,C   2,H  14)          107.80  0.000511    0.10    107.90   
    29. A(C   1,C   2,H  15)          109.13  0.002786   -1.04    108.09   
    30. A(C   1,C   2,H  14)          110.02 -0.001787    0.55    110.57   
    31. A(C   1,C   2,O   3)          110.98 -0.000337    0.19    111.17   
    32. A(O   3,C   2,H  15)          109.29 -0.002529    1.07    110.36   
    33. A(H  14,C   2,H  15)          109.59  0.001325   -0.85    108.74   
    34. A(C   2,O   3,H  16)          106.55 -0.002407    0.60    107.15   
    35. A(C   1,C   4,C   6)          113.51 -0.001677   -0.12    113.38   
    36. A(C   1,C   4,H  17)          107.05 -0.000264    0.41    107.46   
    37. A(C   1,C   4,O   5)          109.83  0.000992   -0.20    109.63   
    38. A(C   6,C   4,H  17)          109.57  0.002084   -0.83    108.74   
    39. A(O   5,C   4,C   6)          108.27  0.000908   -0.52    107.75   
    40. A(O   5,C   4,H  17)          108.51 -0.002112    1.38    109.89   
    41. A(C   4,O   5,H  18)          106.11 -0.001048    0.17    106.28   
    42. A(O   7,C   6,H  19)          107.94 -0.001856    1.68    109.62   
    43. A(C   4,C   6,H  19)          107.52  0.000608    0.15    107.67   
    44. A(C   4,C   6,O   7)          108.67 -0.002543   -0.11    108.57   
    45. A(O   7,C   6,C   8)          113.75  0.003022   -0.22    113.53   
    46. A(C   4,C   6,C   8)          111.49  0.001292   -1.62    109.87   
    47. A(C   8,C   6,H  19)          107.23 -0.000689    0.34    107.57   
    48. A(C   6,O   7,H  20)          108.43 -0.001189    0.33    108.76   
    49. A(C   6,C   8,O   9)          111.76  0.006869   -1.00    110.76   
    50. A(H  21,C   8,H  22)          107.83 -0.001149    1.27    109.10   
    51. A(O   9,C   8,H  22)          110.37 -0.002315    0.21    110.58   
    52. A(C   6,C   8,H  22)          110.27  0.000054    0.12    110.39   
    53. A(O   9,C   8,H  21)          107.35 -0.002855    0.15    107.50   
    54. A(C   6,C   8,H  21)          109.13 -0.000948   -0.69    108.44   
    55. A(C   8,O   9,P  10)          120.20  0.004782   -0.02    120.18   
    56. A(O  11,P  10,O  12)          113.73 -0.002321    0.90    114.64   
    57. A(O   9,P  10,O  12)          104.87 -0.003402    0.35    105.22   
    58. A(O   9,P  10,O  11)          115.94  0.003500   -0.97    114.97   
    59. A(O  12,P  10,O  13)          101.46  0.000438   -0.33    101.13   
    60. A(O  11,P  10,O  13)          113.86 -0.006131    1.15    115.01   
    61. A(O   9,P  10,O  13)          105.51  0.008252   -1.19    104.32   
    62. A(P  10,O  12,H  23)          110.54  0.001240   -0.31    110.23   
    63. A(P  10,O  13,H  24)          109.03  0.002132   -0.45    108.57   
    64. D(O   3,C   2,C   1,O   0)     16.87 -0.000055   -0.67     16.21   
    65. D(O   3,C   2,C   1,C   4)   -160.45 -0.000426    0.52   -159.93   
    66. D(H  14,C   2,C   1,O   0)    136.10 -0.000782   -0.07    136.02   
    67. D(H  15,C   2,C   1,O   0)   -103.63  0.001488   -1.44   -105.07   
    68. D(H  15,C   2,C   1,C   4)     79.05  0.001117   -0.25     78.79   
    69. D(H  14,C   2,C   1,C   4)    -41.23 -0.001153    1.11    -40.12   
    70. D(H  16,O   3,C   2,C   1)    -36.50 -0.001590    1.56    -34.94   
    71. D(H  16,O   3,C   2,H  15)     83.91  0.000017    1.08     84.99   
    72. D(H  16,O   3,C   2,H  14)   -157.05  0.000480    0.71   -156.33   
    73. D(H  17,C   4,C   1,O   0)   -116.62  0.000980    0.15   -116.47   
    74. D(C   6,C   4,C   1,O   0)    122.35 -0.000412    0.99    123.34   
    75. D(C   6,C   4,C   1,C   2)    -60.28 -0.000148   -0.16    -60.44   
    76. D(O   5,C   4,C   1,C   2)    178.36 -0.000889    0.76    179.12   
    77. D(H  17,C   4,C   1,C   2)     60.74  0.001244   -1.00     59.74   
    78. D(O   5,C   4,C   1,O   0)      1.00 -0.001153    1.91      2.91   
    79. D(H  18,O   5,C   4,H  17)    100.58 -0.002306    4.87    105.45   
    80. D(H  18,O   5,C   4,C   6)   -140.58 -0.000491    4.38   -136.20   
    81. D(H  18,O   5,C   4,C   1)    -16.13 -0.001333    3.73    -12.40   
    82. D(H  19,C   6,C   4,O   5)    -54.93 -0.000747    0.92    -54.01   
    83. D(H  19,C   6,C   4,C   1)   -177.15 -0.001555    1.65   -175.49   
    84. D(C   8,C   6,C   4,H  17)   -179.49 -0.001327    1.39   -178.10   
    85. D(C   8,C   6,C   4,O   5)     62.33 -0.000491    0.50     62.83   
    86. D(C   8,C   6,C   4,C   1)    -59.89 -0.001300    1.23    -58.66   
    87. D(O   7,C   6,C   4,H  17)    -53.34  0.001604   -0.20    -53.54   
    88. D(O   7,C   6,C   4,O   5)   -171.52  0.002440   -1.09   -172.61   
    89. D(H  19,C   6,C   4,H  17)     63.25 -0.001582    1.81     65.06   
    90. D(O   7,C   6,C   4,C   1)     66.26  0.001632   -0.36     65.90   
    91. D(H  20,O   7,C   6,H  19)     88.42  0.000314    0.53     88.95   
    92. D(H  20,O   7,C   6,C   8)    -30.43  0.000590   -0.84    -31.27   
    93. D(H  20,O   7,C   6,C   4)   -155.26 -0.001308    1.57   -153.69   
    94. D(O   9,C   8,C   6,C   4)     71.24 -0.000569   -2.30     68.94   
    95. D(H  22,C   8,C   6,O   7)     71.09  0.001388   -0.91     70.18   
    96. D(H  22,C   8,C   6,C   4)   -165.61  0.001315   -2.55   -168.16   
    97. D(H  21,C   8,C   6,H  19)     70.10  0.000406   -1.87     68.23   
    98. D(H  21,C   8,C   6,O   7)   -170.64 -0.000556    0.29   -170.34   
    99. D(H  21,C   8,C   6,C   4)    -47.33 -0.000629   -1.35    -48.68   
   100. D(O   9,C   8,C   6,H  19)   -171.33  0.000466   -2.82   -174.15   
   101. D(H  22,C   8,C   6,H  19)    -48.17  0.002350   -3.07    -51.25   
   102. D(O   9,C   8,C   6,O   7)    -52.06 -0.000496   -0.66    -52.72   
   103. D(P  10,O   9,C   8,H  22)     -8.00  0.000077   -4.15    -12.15   
   104. D(P  10,O   9,C   8,H  21)   -125.28  0.004362   -5.87   -131.14   
   105. D(P  10,O   9,C   8,C   6)    115.10  0.003314   -4.47    110.63   
   106. D(O  13,P  10,O   9,C   8)    -45.11  0.000304   -1.74    -46.84   
   107. D(O  12,P  10,O   9,C   8)     61.57  0.002502   -2.40     59.17   
   108. D(O  11,P  10,O   9,C   8)   -172.11 -0.000845   -1.60   -173.71   
   109. D(H  23,O  12,P  10,O  13)   -160.88  0.004945    0.93   -159.95   
   110. D(H  23,O  12,P  10,O  11)    -38.20 -0.003408    2.59    -35.61   
   111. D(H  23,O  12,P  10,O   9)     89.48 -0.003068    2.22     91.70   
   112. D(H  24,O  13,P  10,O  12)     86.96 -0.001970    1.99     88.95   
   113. D(H  24,O  13,P  10,O  11)    -35.63  0.003766    0.50    -35.13   
   114. D(H  24,O  13,P  10,O   9)   -163.89 -0.002930    1.86   -162.03   
    ----------------------------------------------------------------------------

         *************************************************************
         *                GEOMETRY OPTIMIZATION CYCLE   3            *
         *************************************************************
---------------------------------
CARTESIAN COORDINATES (ANGSTROEM)
---------------------------------
  O    -1.419268   -0.379151   -2.328457
  C    -1.451671   -0.545386   -1.139552
  C    -2.161621    0.413186   -0.229430
  O    -3.033415    1.240445   -0.947325
  C    -0.836444   -1.798503   -0.543248
  O    -0.244827   -2.560143   -1.557853
  C     0.239019   -1.506434    0.509262
  O    -0.371271   -0.892936    1.611155
  C     1.355951   -0.671629   -0.109588
  O     0.897924    0.638412   -0.409313
  P     1.433323    1.880566    0.421572
  O     0.784856    3.150057    0.117524
  O     3.020105    1.874471    0.210836
  O     1.322787    1.413343    1.946965
  H    -2.748401   -0.127299    0.513517
  H    -1.401666    1.017103    0.290987
  H    -2.621022    1.414880   -1.801545
  H    -1.650456   -2.373059   -0.068549
  H    -0.556373   -2.185414   -2.395601
  H     0.677349   -2.472903    0.818204
  H     0.280229   -0.352030    2.063324
  H     1.654335   -1.138579   -1.052745
  H     2.219527   -0.633744    0.559895
  H     3.253982    2.413620   -0.532901
  H     1.356946    2.181425    2.501166

----------------------------
CARTESIAN COORDINATES (A.U.)
----------------------------
  NO LB    ZA    FRAG    MASS        X           Y           Z
   0 O   8.0000    0    15.999   -2.682028   -0.716491   -4.400146
   1 C   6.0000    0    12.011   -2.743260   -1.030631   -2.153441
   2 C   6.0000    0    12.011   -4.084871    0.780809   -0.433559
   3 O   8.0000    0    15.999   -5.732324    2.344101   -1.790185
   4 C   6.0000    0    12.011   -1.580650   -3.398679   -1.026591
   5 O   8.0000    0    15.999   -0.462656   -4.837969   -2.943915
   6 C   6.0000    0    12.011    0.451680   -2.846749    0.962366
   7 O   8.0000    0    15.999   -0.701601   -1.687404    3.044642
   8 C   6.0000    0    12.011    2.562377   -1.269195   -0.207091
   9 O   8.0000    0    15.999    1.696831    1.206424   -0.773490
  10 P  15.0000    0    30.974    2.708588    3.553755    0.796655
  11 O   8.0000    0    15.999    1.483163    5.952746    0.222087
  12 O   8.0000    0    15.999    5.707172    3.542238    0.398422
  13 O   8.0000    0    15.999    2.499705    2.670832    3.679231
  14 H   1.0000    0     1.008   -5.193724   -0.240560    0.970406
  15 H   1.0000    0     1.008   -2.648766    1.922047    0.549885
  16 H   1.0000    0     1.008   -4.953013    2.673737   -3.404426
  17 H   1.0000    0     1.008   -3.118910   -4.484431   -0.129539
  18 H   1.0000    0     1.008   -1.051392   -4.129834   -4.527030
  19 H   1.0000    0     1.008    1.280004   -4.673110    1.546182
  20 H   1.0000    0     1.008    0.529557   -0.665241    3.899117
  21 H   1.0000    0     1.008    3.126240   -2.151602   -1.989400
  22 H   1.0000    0     1.008    4.194299   -1.197603    1.058049
  23 H   1.0000    0     1.008    6.149135    4.561080   -1.007038
  24 H   1.0000    0     1.008    2.564256    4.122296    4.726518

      -----------------------------------------------------------      
     |                   =====================                   |     
     |                           x T B                           |     
     |                   =====================                   |     
     |                         S. Grimme                         |     
     |          Mulliken Center for Theoretical Chemistry        |     
     |                    University of Bonn                     |     
      -----------------------------------------------------------      

   * xtb version 6.5.1 (579679a) compiled by 'ehlert@majestix' on 2022-07-11

   xtb is free software: you can redistribute it and/or modify it under
   the terms of the GNU Lesser General Public License as published by
   the Free Software Foundation, either version 3 of the License, or
   (at your option) any later version.
   
   xtb is distributed in the hope that it will be useful,
   but WITHOUT ANY WARRANTY; without even the implied warranty of
   MERCHANTABILITY or FITNESS FOR A PARTICULAR PURPOSE.  See the
   GNU Lesser General Public License for more details.
   
   Cite this work as:
   * C. Bannwarth, E. Caldeweyher, S. Ehlert, A. Hansen, P. Pracht,
     J. Seibert, S. Spicher, S. Grimme, WIREs Comput. Mol. Sci., 2020, 11,
     e01493. DOI: 10.1002/wcms.1493
   
   for GFN2-xTB:
   * C. Bannwarth, S. Ehlert and S. Grimme., J. Chem. Theory Comput., 2019,
     15, 1652-1671. DOI: 10.1021/acs.jctc.8b01176
   for GFN1-xTB:
   * S. Grimme, C. Bannwarth, P. Shushkov, J. Chem. Theory Comput., 2017,
     13, 1989-2009. DOI: 10.1021/acs.jctc.7b00118
   for GFN0-xTB:
   * P. Pracht, E. Caldeweyher, S. Ehlert, S. Grimme, ChemRxiv, 2019, preprint.
     DOI: 10.26434/chemrxiv.8326202.v1
   for GFN-FF:
   * S. Spicher and S. Grimme, Angew. Chem. Int. Ed., 2020, 59, 15665-15673.
     DOI: 10.1002/anie.202004239
   
   for ALPB and GBSA implicit solvation:
   * S. Ehlert, M. Stahn, S. Spicher, S. Grimme, J. Chem. Theory Comput.,
     2021, 17, 4250-4261. DOI: 10.1021/acs.jctc.1c00471
   
   for DFT-D4:
   * E. Caldeweyher, C. Bannwarth and S. Grimme, J. Chem. Phys., 2017,
     147, 034112. DOI: 10.1063/1.4993215
[...]
     50       0.000069  -0.002062  -0.000143   0.000454  -0.002061  -0.194050
     51      -0.040718  -0.057612   0.000525   0.006460   0.007578  -0.000275
     52      -0.025344  -0.035897   0.000742   0.004315  -0.000501   0.000166
     53       0.026805   0.036453  -0.001159  -0.003354  -0.002675  -0.000041
     54      -0.000573   0.000884  -0.000034  -0.000348  -0.033798   0.000869
     55       0.001188   0.000745   0.001270  -0.001400   0.535923  -0.004112
     56      -0.000212  -0.000854  -0.001029   0.000387  -0.841201   0.005324
     57       0.327011  -0.002418   0.007885   0.012258  -0.000197  -0.000359
     58      -0.925039   0.005555  -0.023429  -0.036129  -0.000115   0.000109
     59       0.161004  -0.001471   0.004131   0.005809  -0.000491  -0.000126
     60      -0.004055  -0.000229  -0.003435   0.000126  -0.002264  -0.011217
     61       0.012959   0.000495   0.000283   0.001846  -0.005805  -0.040635
     62      -0.003300  -0.000178   0.001406  -0.000489  -0.000663  -0.004719
     63      -0.012935   0.000486  -0.012736   0.360334   0.001836   0.000329
     64       0.019832  -0.001303  -0.024286  -0.474931   0.000090  -0.000296
     65       0.032425  -0.002095  -0.047340  -0.797190  -0.000477  -0.000188
     66      -0.017129   0.004917   0.711116  -0.035367  -0.000845  -0.000360
     67      -0.003749   0.000992   0.156765   0.008551  -0.000622  -0.000005
     68      -0.017791   0.005178   0.678378   0.007766  -0.001399  -0.000192
     69      -0.000183  -0.000220   0.000376  -0.000475  -0.000217   0.000166
     70       0.000057   0.000065   0.001035   0.000284  -0.000107   0.005890
     71      -0.000103  -0.000137   0.000120  -0.000007   0.000071  -0.007624
     72      -0.000228  -0.000080  -0.000337   0.000164  -0.000153   0.000465
     73       0.000271   0.000249   0.000694   0.000702   0.000518   0.007677
     74      -0.000096  -0.000266   0.000968  -0.000017   0.000093   0.002741
                 72         73         74    
      0       0.000068  -0.000001   0.000001
      1       0.000102   0.000009   0.000004
      2      -0.000245  -0.000004  -0.000055
      3      -0.000060   0.000017   0.000036
      4      -0.000412  -0.000029   0.000014
      5       0.000495   0.000014   0.000062
      6      -0.000078  -0.000019   0.000044
      7      -0.000051   0.000003   0.000020
      8      -0.000211  -0.000019   0.000010
      9       0.002214   0.000333  -0.000670
     10       0.001320   0.000171  -0.000316
     11      -0.000524  -0.000072   0.000118
     12      -0.000033  -0.000010   0.000027
     13       0.000357   0.000006   0.000031
     14      -0.000234  -0.000011   0.000021
     15       0.000010  -0.000005  -0.000001
     16       0.000107   0.000025  -0.000018
     17      -0.000426  -0.000042  -0.000005
     18      -0.000607  -0.000011   0.000036
     19       0.001954   0.000072  -0.000042
     20       0.001455   0.000069  -0.000041
     21       0.018459   0.000751  -0.000410
     22       0.058831   0.002433  -0.001290
     23       0.005922   0.000277  -0.000134
     24       0.000058   0.000100  -0.000225
     25      -0.000450  -0.000194   0.000525
     26       0.000059   0.000028  -0.000089
     27       0.000039  -0.000067  -0.000233
     28       0.000382   0.000273  -0.000594
     29       0.000215   0.000199  -0.000189
     30       0.000052   0.000005   0.000175
     31      -0.000152  -0.000137   0.000204
     32      -0.000861  -0.000375  -0.000073
     33       0.000110   0.000019  -0.000339
     34      -0.000007  -0.000170   0.000210
     35       0.000310   0.000224  -0.000215
     36      -0.000048   0.004602   0.014554
     37       0.000336   0.011693   0.035072
     38      -0.000166  -0.015119  -0.045634
     39      -0.000028   0.001753  -0.000751
     40       0.002997  -0.049957   0.016375
     41       0.002263  -0.031486   0.010899
     42      -0.000239  -0.000064   0.000171
     43       0.000026   0.000074  -0.000129
     44      -0.000511  -0.000008   0.000175
     45       0.002474   0.000058  -0.000176
     46      -0.002985  -0.000452   0.000156
     47       0.003339   0.000096  -0.000047
     48      -0.036582  -0.005845   0.011474
     49      -0.019171  -0.002701   0.005162
     50       0.007195   0.000838  -0.001558
     51      -0.001110  -0.000063  -0.000081
     52      -0.000281  -0.000102   0.000017
     53       0.000167  -0.000035   0.000095
     54      -0.000177   0.000020   0.000013
     55      -0.003073  -0.000415   0.000133
     56       0.004956   0.000664  -0.000017
     57       0.003577  -0.000069   0.000016
     58      -0.007561  -0.000188   0.000085
     59       0.000819   0.000005   0.000059
     60      -0.289924  -0.012767   0.006634
     61      -0.946811  -0.041888   0.021909
     62      -0.106212  -0.005140   0.002182
     63       0.000774  -0.000164   0.000431
     64       0.000026   0.000436  -0.000014
     65      -0.001849   0.000291   0.000079
     66      -0.000956  -0.000720   0.000855
     67      -0.001074  -0.000258   0.000073
     68      -0.000309  -0.000575   0.000309
     69      -0.001778  -0.073624  -0.225562
     70      -0.004991  -0.186744  -0.558741
     71       0.006579   0.244765   0.729825
     72       0.000399  -0.025049   0.008968
     73      -0.043006   0.801975  -0.266210
     74      -0.023002   0.500133  -0.169502


-----------
IR SPECTRUM
-----------

 Mode   freq       eps      Int      T**2         TX        TY        TZ
       cm**-1   L/(mol*cm) km/mol    a.u.
----------------------------------------------------------------------------
  6:     27.14   0.000664    3.35  0.007633  (-0.084018 -0.009569  0.021964)
  7:     43.54   0.000051    0.26  0.000369  ( 0.018763  0.003693  0.001818)
  8:     65.07   0.001544    7.80  0.007403  ( 0.039198  0.076196  0.007777)
  9:    111.95   0.000199    1.00  0.000554  ( 0.013554  0.011050  0.015761)
 10:    116.43   0.000329    1.66  0.000883  ( 0.022898 -0.018749 -0.002645)
 11:    123.43   0.001246    6.29  0.003149  (-0.052532  0.011978 -0.015683)
 12:    152.46   0.000196    0.99  0.000401  ( 0.012148  0.006744  0.014415)
 13:    160.76   0.000423    2.14  0.000821  (-0.023755 -0.004838 -0.015289)
 14:    174.91   0.001326    6.70  0.002367  ( 0.010783  0.032191  0.034845)
 15:    204.10   0.012381   62.57  0.018931  (-0.124857  0.054792 -0.018418)
 16:    211.38   0.004042   20.43  0.005967  (-0.067260  0.012158  0.035992)
 17:    246.95   0.005708   28.84  0.007213  ( 0.010645 -0.082015 -0.019309)
 18:    267.12   0.014706   74.32  0.017181  ( 0.089244  0.071989  0.063514)
 19:    325.27   0.005938   30.01  0.005697  ( 0.023499  0.034688  0.062783)
 20:    331.18   0.001564    7.90  0.001474  ( 0.003533 -0.034159 -0.017162)
 21:    354.25   0.000631    3.19  0.000556  ( 0.015158 -0.012599  0.012926)
 22:    358.92   0.009376   47.38  0.008152  (-0.035421 -0.081771 -0.014511)
 23:    377.14   0.014417   72.86  0.011929  (-0.059002  0.066038 -0.063929)
 24:    391.20   0.002011   10.16  0.001604  (-0.020906 -0.028102 -0.019432)
 25:    393.28   0.008933   45.14  0.007088  ( 0.001222 -0.050028 -0.067703)
 26:    428.02   0.035583  179.82  0.025943  ( 0.149621  0.042291  0.042053)
 27:    453.52   0.015481   78.24  0.010653  (-0.093637  0.034803 -0.025953)
 28:    469.56   0.019478   98.43  0.012945  (-0.099674 -0.047258 -0.027868)
 29:    486.19   0.016012   80.92  0.010277  (-0.005616  0.036983  0.094224)
 30:    510.99   0.017554   88.71  0.010720  (-0.015257 -0.048916 -0.089970)
 31:    542.55   0.003628   18.33  0.002087  (-0.031296 -0.004570  0.032958)
 32:    671.13   0.001622    8.20  0.000754  ( 0.009526  0.005626  0.025138)
 33:    708.36   0.003793   19.17  0.001671  (-0.013410 -0.022807 -0.031164)
 34:    767.76   0.002097   10.60  0.000853  (-0.005475  0.000062 -0.028680)
 35:    814.62   0.028182  142.42  0.010796  ( 0.061811  0.047538  0.068669)
 36:    818.45   0.044235  223.55  0.016866  (-0.109367 -0.004870  0.069865)
 37:    843.93   0.006671   33.71  0.002467  ( 0.003547 -0.014337 -0.047420)
 38:    885.50   0.061423  310.41  0.021647  ( 0.124801  0.071637 -0.030649)
 39:    910.96   0.036907  186.51  0.012643  ( 0.045024 -0.037629  0.095917)
 40:    914.65   0.023232  117.41  0.007927  ( 0.008080  0.073752  0.049213)
 41:    921.43   0.004746   23.98  0.001607  ( 0.018263  0.035192 -0.005926)
 42:    954.72   0.008459   42.75  0.002765  ( 0.030681  0.008520  0.041847)
 43:   1026.59   0.031738  160.39  0.009648  ( 0.034222 -0.091749 -0.007665)
 44:   1049.97   0.003102   15.68  0.000922  (-0.016166 -0.025623  0.002040)
 45:   1090.87   0.040949  206.94  0.011714  (-0.009340  0.096971 -0.047154)
 46:   1112.69   0.026726  135.06  0.007496  (-0.034937  0.074821  0.026016)
 47:   1122.18   0.015222   76.92  0.004233  ( 0.003502  0.005170  0.064761)
 48:   1137.94   0.010890   55.03  0.002986  ( 0.031726 -0.027623 -0.034882)
 49:   1144.99   0.001674    8.46  0.000456  ( 0.017848 -0.010530  0.005185)
 50:   1175.55   0.000165    0.83  0.000044  ( 0.001776  0.005551 -0.003139)
 51:   1204.47   0.015202   76.83  0.003939  (-0.007225 -0.012354 -0.061106)
 52:   1212.95   0.003970   20.06  0.001021  (-0.028080  0.015203  0.001273)
 53:   1256.05   0.003853   19.47  0.000957  ( 0.006019  0.028513  0.010391)
 54:   1282.05   0.008001   40.43  0.001948  (-0.008274 -0.038560 -0.019806)
 55:   1288.62   0.070101  354.26  0.016976  ( 0.077852 -0.085758  0.059673)
 56:   1298.46   0.009885   49.95  0.002376  ( 0.036765 -0.030756 -0.008836)
 57:   1304.27   0.000139    0.70  0.000033  ( 0.000154 -0.004884 -0.003053)
 58:   1328.61   0.030790  155.60  0.007232  (-0.024950  0.029781  0.075648)
 59:   1343.81   0.018945   95.74  0.004400  ( 0.024406 -0.060246  0.013201)
 60:   1344.65   0.006535   33.02  0.001517  ( 0.005577 -0.020809  0.032441)
 61:   1419.95   0.002206   11.15  0.000485  (-0.005731  0.008144  0.019641)
 62:   1436.96   0.002059   10.41  0.000447  (-0.018520 -0.000910  0.010168)
 63:   1750.36   0.053472  270.23  0.009533  (-0.003249 -0.021184  0.095258)
 64:   2863.08   0.006059   30.62  0.000660  (-0.013108  0.001014 -0.022080)
 65:   2888.11   0.007174   36.26  0.000775  ( 0.024633 -0.001056 -0.012935)
 66:   2907.01   0.007259   36.68  0.000779  (-0.017981  0.021347 -0.000418)
 67:   2924.39   0.004671   23.60  0.000498  ( 0.021690  0.002912 -0.004412)
 68:   2960.61   0.007568   38.25  0.000798  (-0.025466  0.002121 -0.012028)
 69:   2971.06   0.001861    9.41  0.000196  (-0.013590  0.002234  0.002416)
 70:   3291.88   0.014939   75.49  0.001416  (-0.019304  0.030612 -0.010316)
 71:   3425.91   0.048426  244.73  0.004411  ( 0.060580  0.024614 -0.011631)
 72:   3481.09   0.043237  218.50  0.003876  (-0.027449 -0.055271 -0.008229)
 73:   3622.30   0.022150  111.93  0.001908  (-0.013199  0.015362  0.038704)
 74:   3633.65   0.022945  115.95  0.001971  ( 0.003339 -0.038968  0.020997)

* The epsilon (eps) is given for a Dirac delta lineshape.
** The dipole moment derivative (T) already includes vibrational overlap.

The first frequency considered to be a vibration is 6
The total number of vibrations considered is 69


--------------------------
THERMOCHEMISTRY AT 298.15K
--------------------------

Temperature         ... 298.15 K
Pressure            ... 1.00 atm
Total Mass          ... 230.11 AMU

Throughout the following assumptions are being made:
  (1) The electronic state is orbitally nondegenerate
  (2) There are no thermally accessible electronically excited states
  (3) Hindered rotations indicated by low frequency modes are not
      treated as such but are treated as vibrations and this may
      cause some error
  (4) All equations used are the standard statistical mechanics
      equations for an ideal gas
  (5) All vibrations are strictly harmonic

freq.      27.14  E(vib)   ...       0.55 
freq.      43.54  E(vib)   ...       0.53 
freq.      65.07  E(vib)   ...       0.50 
freq.     111.95  E(vib)   ...       0.45 
freq.     116.43  E(vib)   ...       0.44 
freq.     123.43  E(vib)   ...       0.43 
freq.     152.46  E(vib)   ...       0.40 
freq.     160.76  E(vib)   ...       0.39 
freq.     174.91  E(vib)   ...       0.38 
freq.     204.10  E(vib)   ...       0.35 
freq.     211.38  E(vib)   ...       0.34 
freq.     246.95  E(vib)   ...       0.31 
freq.     267.12  E(vib)   ...       0.29 
freq.     325.27  E(vib)   ...       0.24 
freq.     331.18  E(vib)   ...       0.24 
freq.     354.25  E(vib)   ...       0.22 
freq.     358.92  E(vib)   ...       0.22 
freq.     377.14  E(vib)   ...       0.21 
freq.     391.20  E(vib)   ...       0.20 
freq.     393.28  E(vib)   ...       0.20 
freq.     428.02  E(vib)   ...       0.18 
freq.     453.52  E(vib)   ...       0.16 
freq.     469.56  E(vib)   ...       0.16 
freq.     486.19  E(vib)   ...       0.15 
freq.     510.99  E(vib)   ...       0.14 
freq.     542.55  E(vib)   ...       0.12 
freq.     671.13  E(vib)   ...       0.08 
freq.     708.36  E(vib)   ...       0.07 
freq.     767.76  E(vib)   ...       0.06 
freq.     814.62  E(vib)   ...       0.05 
freq.     818.45  E(vib)   ...       0.05 
freq.     843.93  E(vib)   ...       0.04 
freq.     885.50  E(vib)   ...       0.04 
freq.     910.96  E(vib)   ...       0.03 
freq.     914.65  E(vib)   ...       0.03 
freq.     921.43  E(vib)   ...       0.03 
freq.     954.72  E(vib)   ...       0.03 
freq.    1026.59  E(vib)   ...       0.02 
freq.    1049.97  E(vib)   ...       0.02 
freq.    1090.87  E(vib)   ...       0.02 
freq.    1112.69  E(vib)   ...       0.01 
freq.    1122.18  E(vib)   ...       0.01 
freq.    1137.94  E(vib)   ...       0.01 
freq.    1144.99  E(vib)   ...       0.01 
freq.    1175.55  E(vib)   ...       0.01 
freq.    1204.47  E(vib)   ...       0.01 
freq.    1212.95  E(vib)   ...       0.01 
freq.    1256.05  E(vib)   ...       0.01 
freq.    1282.05  E(vib)   ...       0.01 
freq.    1288.62  E(vib)   ...       0.01 
freq.    1298.46  E(vib)   ...       0.01 
freq.    1304.27  E(vib)   ...       0.01 
freq.    1328.61  E(vib)   ...       0.01 
freq.    1343.81  E(vib)   ...       0.01 
freq.    1344.65  E(vib)   ...       0.01 
freq.    1419.95  E(vib)   ...       0.00 
freq.    1436.96  E(vib)   ...       0.00 
freq.    1750.36  E(vib)   ...       0.00 
freq.    2863.08  E(vib)   ...       0.00 
freq.    2888.11  E(vib)   ...       0.00 
freq.    2907.01  E(vib)   ...       0.00 
freq.    2924.39  E(vib)   ...       0.00 
freq.    2960.61  E(vib)   ...       0.00 
freq.    2971.06  E(vib)   ...       0.00 
freq.    3291.88  E(vib)   ...       0.00 
freq.    3425.91  E(vib)   ...       0.00 
freq.    3481.09  E(vib)   ...       0.00 
freq.    3622.30  E(vib)   ...       0.00 
freq.    3633.65  E(vib)   ...       0.00 

------------
INNER ENERGY
------------

The inner energy is: U= E(el) + E(ZPE) + E(vib) + E(rot) + E(trans)
    E(el)   - is the total energy from the electronic structure calculation
              = E(kin-el) + E(nuc-el) + E(el-el) + E(nuc-nuc)
    E(ZPE)  - the the zero temperature vibrational energy from the frequency calculation
    E(vib)  - the the finite temperature correction to E(ZPE) due to population
              of excited vibrational states
    E(rot)  - is the rotational thermal energy
    E(trans)- is the translational thermal energy

Summary of contributions to the inner energy U:
Electronic energy                ...    -51.49466966 Eh
Zero point energy                ...      0.17733236 Eh     111.28 kcal/mol
Thermal vibrational correction   ...      0.01356447 Eh       8.51 kcal/mol
Thermal rotational correction    ...      0.00141627 Eh       0.89 kcal/mol
Thermal translational correction ...      0.00141627 Eh       0.89 kcal/mol
-----------------------------------------------------------------------
Total thermal energy                    -51.30094029 Eh


Summary of corrections to the electronic energy:
(perhaps to be used in another calculation)
Total thermal correction                  0.01639701 Eh      10.29 kcal/mol
Non-thermal (ZPE) correction              0.17733236 Eh     111.28 kcal/mol
-----------------------------------------------------------------------
Total correction                          0.19372937 Eh     121.57 kcal/mol


--------
ENTHALPY
--------

The enthalpy is H = U + kB*T
                kB is Boltzmann's constant
Total free energy                 ...    -51.30094029 Eh 
Thermal Enthalpy correction       ...      0.00094421 Eh       0.59 kcal/mol
-----------------------------------------------------------------------
Total Enthalpy                    ...    -51.29999608 Eh


Note: Only C1 symmetry has been detected, increase convergence thresholds 
      if your molecule has a higher symmetry. Symmetry factor of 1.0 is   
      used for the rotational entropy correction. 
 

Note: Rotational entropy computed according to Herzberg 
Infrared and Raman Spectra, Chapter V,1, Van Nostrand Reinhold, 1945 
Point Group:  C1, Symmetry Number:   1  
Rotational constants in cm-1:     0.028808     0.017821     0.014819 

Vibrational entropy computed according to the QRRHO of S. Grimme
Chem.Eur.J. 2012 18 9955


-------
ENTROPY
-------

The entropy contributions are T*S = T*(S(el)+S(vib)+S(rot)+S(trans))
     S(el)   - electronic entropy
     S(vib)  - vibrational entropy
     S(rot)  - rotational entropy
     S(trans)- translational entropy
The entropies will be listed as multiplied by the temperature to get
units of energy

Electronic entropy                ...      0.00000000 Eh      0.00 kcal/mol
Vibrational entropy               ...      0.02393345 Eh     15.02 kcal/mol
Rotational entropy                ...      0.01507501 Eh      9.46 kcal/mol
Translational entropy             ...      0.02005154 Eh     12.58 kcal/mol
-----------------------------------------------------------------------
Final entropy term                ...      0.05906000 Eh     37.06 kcal/mol

In case the symmetry of your molecule has not been determined correctly
or in case you have a reason to use a different symmetry number we print 
out the resulting rotational entropy values for sn=1,12 :
 --------------------------------------------------------
|  sn= 1 | S(rot)=       0.01507501 Eh      9.46 kcal/mol|
|  sn= 2 | S(rot)=       0.01442056 Eh      9.05 kcal/mol|
|  sn= 3 | S(rot)=       0.01403772 Eh      8.81 kcal/mol|
|  sn= 4 | S(rot)=       0.01376610 Eh      8.64 kcal/mol|
|  sn= 5 | S(rot)=       0.01355541 Eh      8.51 kcal/mol|
|  sn= 6 | S(rot)=       0.01338327 Eh      8.40 kcal/mol|
|  sn= 7 | S(rot)=       0.01323772 Eh      8.31 kcal/mol|
|  sn= 8 | S(rot)=       0.01311164 Eh      8.23 kcal/mol|
|  sn= 9 | S(rot)=       0.01300044 Eh      8.16 kcal/mol|
|  sn=10 | S(rot)=       0.01290096 Eh      8.10 kcal/mol|
|  sn=11 | S(rot)=       0.01281097 Eh      8.04 kcal/mol|
|  sn=12 | S(rot)=       0.01272881 Eh      7.99 kcal/mol|
 --------------------------------------------------------


-------------------
GIBBS FREE ENERGY
-------------------

The Gibbs free energy is G = H - T*S

Total enthalpy                    ...    -51.29999608 Eh 
Total entropy correction          ...     -0.05906000 Eh    -37.06 kcal/mol
-----------------------------------------------------------------------
Final Gibbs free energy         ...    -51.35905608 Eh

For completeness - the Gibbs free energy minus the electronic energy
G-E(el)                           ...      0.13561357 Eh     85.10 kcal/mol



Timings for individual modules:

Sum of individual times         ...      365.617 sec (=   6.094 min)
Geometry relaxation             ...        1.313 sec (=   0.022 min)   0.4 %
Numerical frequency calculation ...      363.047 sec (=   6.051 min)  99.3 %
XTB module                      ...        1.257 sec (=   0.021 min)   0.3 %
                             ****ORCA TERMINATED NORMALLY****
TOTAL RUN TIME: 0 days 0 hours 6 minutes 6 seconds 744 msec
