
                                 *****************
                                 * O   R   C   A *
                                 *****************

                                            #,                                       
                                            ###                                      
                                            ####                                     
                                            #####                                    
                                            ######                                   
                                           ########,                                 
                                     ,,################,,,,,                         
                               ,,#################################,,                 
                          ,,##########################################,,             
                       ,#########################################, ''#####,          
                    ,#############################################,,   '####,        
                  ,##################################################,,,,####,       
                ,###########''''           ''''###############################       
              ,#####''   ,,,,##########,,,,          '''####'''          '####       
            ,##' ,,,,###########################,,,                        '##       
           ' ,,###''''                  '''############,,,                           
         ,,##''                                '''############,,,,        ,,,,,,###''
      ,#''                                            '''#######################'''  
     '                                                          ''''####''''         
             ,#######,   #######,   ,#######,      ##                                
            ,#'     '#,  ##    ##  ,#'     '#,    #''#        ######   ,####,        
            ##       ##  ##   ,#'  ##            #'  '#       #        #'  '#        
            ##       ##  #######   ##           ,######,      #####,   #    #        
            '#,     ,#'  ##    ##  '#,     ,#' ,#      #,         ##   #,  ,#        
             '#######'   ##     ##  '#######'  #'      '#     #####' # '####'        



                  #######################################################
                  #                        -***-                        #
                  #          Department of theory and spectroscopy      #
                  #    Directorship and core code : Frank Neese         #
                  #        Max Planck Institute fuer Kohlenforschung    #
                  #                Kaiser Wilhelm Platz 1               #
                  #                 D-45470 Muelheim/Ruhr               #
                  #                      Germany                        #
                  #                                                     #
                  #                  All rights reserved                #
                  #                        -***-                        #
                  #######################################################


                         Program Version 5.0.3 -  RELEASE  -


 With contributions from (in alphabetic order):
   Daniel Aravena         : Magnetic Suceptibility
   Michael Atanasov       : Ab Initio Ligand Field Theory (pilot matlab implementation)
   Alexander A. Auer      : GIAO ZORA, VPT2 properties, NMR spectrum
   Ute Becker             : Parallelization
   Giovanni Bistoni       : ED, misc. LED, open-shell LED, HFLD
   Martin Brehm           : Molecular dynamics
   Dmytro Bykov           : SCF Hessian
   Vijay G. Chilkuri      : MRCI spin determinant printing, contributions to CSF-ICE
   Dipayan Datta          : RHF DLPNO-CCSD density
   Achintya Kumar Dutta   : EOM-CC, STEOM-CC
   Dmitry Ganyushin       : Spin-Orbit,Spin-Spin,Magnetic field MRCI
   Miquel Garcia          : C-PCM and meta-GGA Hessian, CC/C-PCM, Gaussian charge scheme
   Yang Guo               : DLPNO-NEVPT2, F12-NEVPT2, CIM, IAO-localization
   Andreas Hansen         : Spin unrestricted coupled pair/coupled cluster methods
   Benjamin Helmich-Paris : MC-RPA, TRAH-SCF, COSX integrals
   Lee Huntington         : MR-EOM, pCC
   Robert Izsak           : Overlap fitted RIJCOSX, COSX-SCS-MP3, EOM
   Marcus Kettner         : VPT2
   Christian Kollmar      : KDIIS, OOCD, Brueckner-CCSD(T), CCSD density, CASPT2, CASPT2-K
   Simone Kossmann        : Meta GGA functionals, TD-DFT gradient, OOMP2, MP2 Hessian
   Martin Krupicka        : Initial AUTO-CI
   Lucas Lang             : DCDCAS
   Marvin Lechner         : AUTO-CI (C++ implementation), FIC-MRCC
   Dagmar Lenk            : GEPOL surface, SMD
   Dimitrios Liakos       : Extrapolation schemes; Compound Job, initial MDCI parallelization
   Dimitrios Manganas     : Further ROCIS development; embedding schemes
   Dimitrios Pantazis     : SARC Basis sets
   Anastasios Papadopoulos: AUTO-CI, single reference methods and gradients
   Taras Petrenko         : DFT Hessian,TD-DFT gradient, ASA, ECA, R-Raman, ABS, FL, XAS/XES, NRVS
   Peter Pinski           : DLPNO-MP2, DLPNO-MP2 Gradient
   Christoph Reimann      : Effective Core Potentials
   Marius Retegan         : Local ZFS, SOC
   Christoph Riplinger    : Optimizer, TS searches, QM/MM, DLPNO-CCSD(T), (RO)-DLPNO pert. Triples
   Tobias Risthaus        : Range-separated hybrids, TD-DFT gradient, RPA, STAB
   Michael Roemelt        : Original ROCIS implementation
   Masaaki Saitow         : Open-shell DLPNO-CCSD energy and density
   Barbara Sandhoefer     : DKH picture change effects
   Avijit Sen             : IP-ROCIS
   Kantharuban Sivalingam : CASSCF convergence, NEVPT2, FIC-MRCI
   Bernardo de Souza      : ESD, SOC TD-DFT
   Georgi Stoychev        : AutoAux, RI-MP2 NMR, DLPNO-MP2 response
   Willem Van den Heuvel  : Paramagnetic NMR
   Boris Wezisla          : Elementary symmetry handling
   Frank Wennmohs         : Technical directorship


 We gratefully acknowledge several colleagues who have allowed us to
 interface, adapt or use parts of their codes:
   Stefan Grimme, W. Hujo, H. Kruse, P. Pracht,  : VdW corrections, initial TS optimization,
                  C. Bannwarth, S. Ehlert          DFT functionals, gCP, sTDA/sTD-DF
   Ed Valeev, F. Pavosevic, A. Kumar             : LibInt (2-el integral package), F12 methods
   Garnet Chan, S. Sharma, J. Yang, R. Olivares  : DMRG
   Ulf Ekstrom                                   : XCFun DFT Library
   Mihaly Kallay                                 : mrcc  (arbitrary order and MRCC methods)
   Jiri Pittner, Ondrej Demel                    : Mk-CCSD
   Frank Weinhold                                : gennbo (NPA and NBO analysis)
   Christopher J. Cramer and Donald G. Truhlar   : smd solvation model
   Lars Goerigk                                  : TD-DFT with DH, B97 family of functionals
   V. Asgeirsson, H. Jonsson                     : NEB implementation
   FAccTs GmbH                                   : IRC, NEB, NEB-TS, DLPNO-Multilevel, CI-OPT
                                                   MM, QMMM, 2- and 3-layer-ONIOM, Crystal-QMMM,
                                                   LR-CPCM, SF, NACMEs, symmetry and pop. for TD-DFT,
                                                   nearIR, NL-DFT gradient (VV10), updates on ESD,
                                                   ML-optimized integration grids
   S Lehtola, MJT Oliveira, MAL Marques          : LibXC Library
   Liviu Ungur et al                             : ANISO software


 Your calculation uses the libint2 library for the computation of 2-el integrals
 For citations please refer to: http://libint.valeyev.net

 Your ORCA version has been built with support for libXC version: 5.1.0
 For citations please refer to: https://tddft.org/programs/libxc/

 This ORCA versions uses:
   CBLAS   interface :  Fast vector & matrix operations
   LAPACKE interface :  Fast linear algebra routines
   SCALAPACK package :  Parallel linear algebra routines
   Shared memory     :  Shared parallel matrices
   BLAS/LAPACK       :  OpenBLAS 0.3.15  USE64BITINT DYNAMIC_ARCH NO_AFFINITY Haswell SINGLE_THREADED
        Core in use  :  Haswell
   Copyright (c) 2011-2014, The OpenBLAS Project


Your calculation utilizes the semiempirical GFN2-xTB method
Please cite in your paper:
C. Bannwarth, Ehlert S., S. Grimme,  J. Chem. Theory Comput., 15, (2019), 1652.
   

================================================================================

================================================================================
                                        WARNINGS
                       Please study these warnings very carefully!
================================================================================


WARNING: Geometry Optimization
  ===> : Switching off AutoStart
         For restart on a previous wavefunction, please use MOREAD

WARNING: Found dipole moment calculation with XTB calculation
  ===> : Switching off dipole moment calculation


WARNING: TRAH-SCF for XTB is not implemented!
  ===> : Turning TRAH off!

================================================================================
                                       INPUT FILE
================================================================================
NAME = /tmp/C00279.inp
|  1> ! XTB2 opt numfreq
|  2> * XYZ 0 1
|  3> O -4.1997 1.3581 0.0482
|  4> C -3.0088 1.6683 0.0626
|  5> C -1.9443 0.8341 -0.6324
|  6> O -2.4976 -0.4060 -1.0646
|  7> C -0.7770 0.6033 0.3294
|  8> O -0.1226 1.8552 0.5937
|  9> C 0.2499 -0.3811 -0.2375
| 10> O 1.3390 -0.4622 0.6821
| 11> P 2.4370 -1.5865 0.3813
| 12> O 1.9481 -2.9754 0.1733
| 13> O 3.5178 -1.3966 1.5358
| 14> O 3.2493 -1.0354 -0.8771
| 15> H -2.6663 2.6054 0.5336
| 16> H -1.6197 1.3996 -1.5128
| 17> H -3.4633 -0.2604 -1.1516
| 18> H -1.1376 0.2256 1.2942
| 19> H 0.7047 1.6213 1.0599
| 20> H 0.6431 -0.0197 -1.1936
| 21> H -0.1892 -1.3741 -0.3748
| 22> H 3.8726 -0.4909 1.5468
| 23> H 3.6644 -1.7827 -1.3499
| 24> *
| 25> 
| 26>                          ****END OF INPUT****
================================================================================

                       *****************************
                       * Geometry Optimization Run *
                       *****************************

Geometry optimization settings:
Update method            Update   .... BFGS
Choice of coordinates    CoordSys .... Z-matrix Internals
Initial Hessian          InHess   .... Almoef's Model

Convergence Tolerances:
Energy Change            TolE     ....  5.0000e-06 Eh
Max. Gradient            TolMAXG  ....  3.0000e-04 Eh/bohr
RMS Gradient             TolRMSG  ....  1.0000e-04 Eh/bohr
Max. Displacement        TolMAXD  ....  4.0000e-03 bohr
RMS Displacement         TolRMSD  ....  2.0000e-03 bohr
Strict Convergence                ....  False
------------------------------------------------------------------------------
                        ORCA OPTIMIZATION COORDINATE SETUP
------------------------------------------------------------------------------

The optimization will be done in new redundant internal coordinates
Making redundant internal coordinates   ...  (new redundants) done
Evaluating the initial hessian          ...  (Almloef) done
Evaluating the coordinates              ...  done
Calculating the B-matrix                .... done
Calculating the G-matrix                .... done
Diagonalizing the G-matrix              .... done
Small eigenvalue found = 8.817e-03
The first mode is                       ....   37
The number of degrees of freedom        ....   57

    -----------------------------------------------------------------
                    Redundant Internal Coordinates


    -----------------------------------------------------------------
         Definition                    Initial Value    Approx d2E/dq
    -----------------------------------------------------------------
      1. B(C   1,O   0)                  1.2307         1.004604   
      2. B(C   2,C   1)                  1.5206         0.386770   
      3. B(O   3,C   2)                  1.4251         0.491977   
      4. B(C   4,C   2)                  1.5300         0.373567   
      5. B(O   5,C   4)                  1.4371         0.470630   
      6. B(C   6,C   4)                  1.5313         0.371767   
      7. B(O   7,C   6)                  1.4277         0.487190   
      8. B(P   8,O   7)                  1.6000         0.869482   
      9. B(O   9,P   8)                  1.4871         1.316817   
     10. B(O  10,P   8)                  1.5928         0.892874   
     11. B(O  11,P   8)                  1.5960         0.882594   
     12. B(H  12,C   1)                  1.1033         0.342910   
     13. B(H  13,C   2)                  1.0956         0.352815   
     14. B(H  14,O   3)                  0.9805         0.482269   
     15. B(H  15,C   4)                  1.0971         0.350888   
     16. B(H  16,O   5)                  0.9780         0.486692   
     17. B(H  17,C   6)                  1.0951         0.353357   
     18. B(H  18,C   6)                  1.0944         0.354327   
     19. B(H  19,O  10)                  0.9728         0.496113   
     20. B(H  20,O  11)                  0.9769         0.488683   
     21. A(C   2,C   1,H  12)          116.3444         0.323564   
     22. A(O   0,C   1,C   2)          122.2625         0.432060   
     23. A(O   0,C   1,H  12)          121.2957         0.377735   
     24. A(C   4,C   2,H  13)          110.9150         0.323232   
     25. A(O   3,C   2,H  13)          108.6928         0.336242   
     26. A(C   1,C   2,H  13)          106.9505         0.325080   
     27. A(C   1,C   2,C   4)          109.2412         0.365514   
     28. A(C   1,C   2,O   3)          110.1343         0.380873   
     29. A(O   3,C   2,C   4)          110.8305         0.378587   
     30. A(C   2,O   3,H  14)          106.2661         0.351274   
     31. A(C   2,C   4,H  15)          110.7322         0.322941   
     32. A(C   2,C   4,O   5)          109.3664         0.375694   
     33. A(O   5,C   4,C   6)          108.8271         0.375381   
     34. A(C   2,C   4,C   6)          112.0786         0.363049   
     35. A(C   6,C   4,H  15)          108.9460         0.322686   
     36. A(O   5,C   4,H  15)          106.7291         0.333469   
     37. A(C   4,O   5,H  16)          105.3383         0.349191   
     38. A(C   4,C   6,H  18)          111.1412         0.323202   
     39. A(O   7,C   6,H  17)          107.8898         0.335781   
     40. A(C   4,C   6,H  17)          110.5994         0.323057   
     41. A(O   7,C   6,H  18)          109.5927         0.335934   
     42. A(C   4,C   6,O   7)          108.0361         0.377631   
     43. A(H  17,C   6,H  18)          109.5089         0.289244   
     44. A(C   6,O   7,P   8)          116.2508         0.465985   
     45. A(O  10,P   8,O  11)          100.6600         0.560408   
     46. A(O   9,P   8,O  11)          112.3065         0.603740   
     47. A(O   7,P   8,O  11)          104.7657         0.557583   
     48. A(O   9,P   8,O  10)          115.8377         0.605091   
     49. A(O   7,P   8,O  10)          104.2175         0.558813   
     50. A(O   7,P   8,O   9)          117.1918         0.601999   
     51. A(P   8,O  10,H  19)          111.5112         0.417229   
     52. A(P   8,O  11,H  20)          109.4957         0.415253   
     53. D(H  13,C   2,C   1,O   0)    108.1351         0.011139   
     54. D(C   4,C   2,C   1,O   0)   -131.7550         0.011139   
     55. D(C   4,C   2,C   1,H  12)     51.7925         0.011139   
     56. D(H  13,C   2,C   1,H  12)    -68.3174         0.011139   
     57. D(O   3,C   2,C   1,O   0)     -9.8084         0.011139   
     58. D(O   3,C   2,C   1,H  12)    173.7391         0.011139   
     59. D(H  14,O   3,C   2,H  13)    -93.4103         0.019117   
     60. D(H  14,O   3,C   2,C   1)     23.4527         0.019117   
     61. D(H  14,O   3,C   2,C   4)    144.4525         0.019117   
     62. D(C   6,C   4,C   2,C   1)    172.5322         0.011143   
     63. D(C   6,C   4,C   2,O   3)     51.0061         0.011143   
     64. D(O   5,C   4,C   2,H  13)     50.9537         0.011143   
     65. D(O   5,C   4,C   2,O   3)    171.7841         0.011143   
     66. D(O   5,C   4,C   2,C   1)    -66.6898         0.011143   
     67. D(C   6,C   4,C   2,H  13)    -69.8243         0.011143   
     68. D(H  15,C   4,C   2,H  13)    168.2944         0.011143   
     69. D(H  15,C   4,C   2,O   3)    -70.8752         0.011143   
     70. D(H  15,C   4,C   2,C   1)     50.6509         0.011143   
     71. D(H  16,O   5,C   4,H  15)     71.0676         0.017460   
     72. D(H  16,O   5,C   4,C   6)    -46.3627         0.017460   
     73. D(H  16,O   5,C   4,C   2)   -169.1000         0.017460   
     74. D(H  18,C   6,C   4,H  15)     59.2507         0.011042   
     75. D(H  18,C   6,C   4,O   5)    175.2639         0.011042   
     76. D(H  18,C   6,C   4,C   2)    -63.6465         0.011042   
     77. D(H  17,C   6,C   4,H  15)   -178.8888         0.011042   
     78. D(H  17,C   6,C   4,O   5)    -62.8756         0.011042   
     79. D(H  17,C   6,C   4,C   2)     58.2139         0.011042   
     80. D(O   7,C   6,C   4,H  15)    -61.0157         0.011042   
     81. D(O   7,C   6,C   4,O   5)     54.9975         0.011042   
     82. D(O   7,C   6,C   4,C   2)    176.0870         0.011042   
     83. D(P   8,O   7,C   6,C   4)    172.0233         0.018737   
     84. D(P   8,O   7,C   6,H  18)     50.7905         0.018737   
     85. D(P   8,O   7,C   6,H  17)    -68.3782         0.018737   
     86. D(O  11,P   8,O   7,C   6)     73.1108         0.013086   
     87. D(O  10,P   8,O   7,C   6)    178.4255         0.013086   
     88. D(O   9,P   8,O   7,C   6)    -52.1083         0.013086   
     89. D(H  19,O  10,P   8,O  11)     51.7488         0.013766   
     90. D(H  19,O  10,P   8,O   9)    173.0993         0.013766   
     91. D(H  19,O  10,P   8,O   7)    -56.6257         0.013766   
     92. D(H  20,O  11,P   8,O  10)     95.6958         0.013465   
     93. D(H  20,O  11,P   8,O   9)    -28.1232         0.013465   
     94. D(H  20,O  11,P   8,O   7)   -156.3616         0.013465   
    -----------------------------------------------------------------

Number of atoms                         .... 21
Number of degrees of freedom            .... 94

         *************************************************************
         *                GEOMETRY OPTIMIZATION CYCLE   1            *
         *************************************************************
---------------------------------
CARTESIAN COORDINATES (ANGSTROEM)
---------------------------------
  O    -4.199700    1.358100    0.048200
  C    -3.008800    1.668300    0.062600
  C    -1.944300    0.834100   -0.632400
  O    -2.497600   -0.406000   -1.064600
  C    -0.777000    0.603300    0.329400
  O    -0.122600    1.855200    0.593700
  C     0.249900   -0.381100   -0.237500
  O     1.339000   -0.462200    0.682100
  P     2.437000   -1.586500    0.381300
  O     1.948100   -2.975400    0.173300
  O     3.517800   -1.396600    1.535800
  O     3.249300   -1.035400   -0.877100
  H    -2.666300    2.605400    0.533600
  H    -1.619700    1.399600   -1.512800
  H    -3.463300   -0.260400   -1.151600
  H    -1.137600    0.225600    1.294200
  H     0.704700    1.621300    1.059900
  H     0.643100   -0.019700   -1.193600
  H    -0.189200   -1.374100   -0.374800
  H     3.872600   -0.490900    1.546800
  H     3.664400   -1.782700   -1.349900

----------------------------
CARTESIAN COORDINATES (A.U.)
----------------------------
  NO LB    ZA    FRAG    MASS        X           Y           Z
   0 O   8.0000    0    15.999   -7.936283    2.566437    0.091085
   1 C   6.0000    0    12.011   -5.685808    3.152630    0.118297
   2 C   6.0000    0    12.011   -3.674195    1.576221   -1.195063
   3 O   8.0000    0    15.999   -4.719780   -0.767229   -2.011802
   4 C   6.0000    0    12.011   -1.468317    1.140072    0.622476
   5 O   8.0000    0    15.999   -0.231680    3.505820    1.121930
   6 C   6.0000    0    12.011    0.472243   -0.720175   -0.448810
   7 O   8.0000    0    15.999    2.530343   -0.873431    1.288982
   8 P  15.0000    0    30.974    4.605263   -2.998051    0.720553
   9 O   8.0000    0    15.999    3.681375   -5.622691    0.327490
  10 O   8.0000    0    15.999    6.647679   -2.639192    2.902241
  11 O   8.0000    0    15.999    6.140287   -1.956622   -1.657479
  12 H   1.0000    0     1.008   -5.038577    4.923492    1.008358
  13 H   1.0000    0     1.008   -3.060789    2.644861   -2.858778
  14 H   1.0000    0     1.008   -6.544689   -0.492085   -2.176209
  15 H   1.0000    0     1.008   -2.149752    0.426322    2.445684
  16 H   1.0000    0     1.008    1.331690    3.063813    2.002921
  17 H   1.0000    0     1.008    1.215283   -0.037228   -2.255577
  18 H   1.0000    0     1.008   -0.357536   -2.596673   -0.708269
  19 H   1.0000    0     1.008    7.318153   -0.927667    2.923028
  20 H   1.0000    0     1.008    6.924712   -3.368815   -2.550941

      -----------------------------------------------------------      
     |                   =====================                   |     
     |                           x T B                           |     
     |                   =====================                   |     
     |                         S. Grimme                         |     
     |          Mulliken Center for Theoretical Chemistry        |     
     |                    University of Bonn                     |     
      -----------------------------------------------------------      

   * xtb version 6.5.1 (579679a) compiled by 'ehlert@majestix' on 2022-07-11

   xtb is free software: you can redistribute it and/or modify it under
   the terms of the GNU Lesser General Public License as published by
   the Free Software Foundation, either version 3 of the License, or
   (at your option) any later version.
   
   xtb is distributed in the hope that it will be useful,
   but WITHOUT ANY WARRANTY; without even the implied warranty of
   MERCHANTABILITY or FITNESS FOR A PARTICULAR PURPOSE.  See the
   GNU Lesser General Public License for more details.
   
   Cite this work as:
   * C. Bannwarth, E. Caldeweyher, S. Ehlert, A. Hansen, P. Pracht,
     J. Seibert, S. Spicher, S. Grimme, WIREs Comput. Mol. Sci., 2020, 11,
     e01493. DOI: 10.1002/wcms.1493
   
   for GFN2-xTB:
   * C. Bannwarth, S. Ehlert and S. Grimme., J. Chem. Theory Comput., 2019,
     15, 1652-1671. DOI: 10.1021/acs.jctc.8b01176
   for GFN1-xTB:
   * S. Grimme, C. Bannwarth, P. Shushkov, J. Chem. Theory Comput., 2017,
     13, 1989-2009. DOI: 10.1021/acs.jctc.7b00118
   for GFN0-xTB:
   * P. Pracht, E. Caldeweyher, S. Ehlert, S. Grimme, ChemRxiv, 2019, preprint.
     DOI: 10.26434/chemrxiv.8326202.v1
   for GFN-FF:
   * S. Spicher and S. Grimme, Angew. Chem. Int. Ed., 2020, 59, 15665-15673.
     DOI: 10.1002/anie.202004239
   
   for ALPB and GBSA implicit solvation:
   * S. Ehlert, M. Stahn, S. Spicher, S. Grimme, J. Chem. Theory Comput.,
     2021, 17, 4250-4261. DOI: 10.1021/acs.jctc.1c00471
   
   for DFT-D4:
   * E. Caldeweyher, C. Bannwarth and S. Grimme, J. Chem. Phys., 2017,
     147, 034112. DOI: 10.1063/1.4993215
   * E. Caldeweyher, S. Ehlert, A. Hansen, H. Neugebauer, S. Spicher,
     C. Bannwarth and S. Grimme, J. Chem. Phys., 2019, 150, 154122.
     DOI: 10.1063/1.5090222
   * E. Caldeweyher, J.-M. Mewes, S. Ehlert and S. Grimme, Phys. Chem. Chem. Phys.
     2020, 22, 8499-8512. DOI: 10.1039/D0CP00502A
   
   for sTDA-xTB:
   * S. Grimme and C. Bannwarth, J. Chem. Phys., 2016, 145, 054103.
     DOI: 10.1063/1.4959605
   
   in the mass-spec context:
   * V. Asgeirsson, C. Bauer and S. Grimme, Chem. Sci., 2017, 8, 4879.
     DOI: 10.1039/c7sc00601b
   * J. Koopman and S. Grimme, ACS Omega 2019, 4, 12, 15120-15133.
     DOI: 10.1021/acsomega.9b02011
   
   for metadynamics refer to:
   * S. Grimme, J. Chem. Theory Comput., 2019, 155, 2847-2862
     DOI: 10.1021/acs.jctc.9b00143
   
   for SPH calculations refer to:
   * S. Spicher and S. Grimme, J. Chem. Theory Comput., 2021, 17, 1701-1714
     DOI: 10.1021/acs.jctc.0c01306
   
   with help from (in alphabetical order)
   P. Atkinson, C. Bannwarth, F. Bohle, G. Brandenburg, E. Caldeweyher
   M. Checinski, S. Dohm, S. Ehlert, S. Ehrlich, I. Gerasimov, C. Hölzer
   A. Katbashev, J. Koopman, C. Lavigne, S. Lehtola, F. März, M. Müller,
   F. Musil, H. Neugebauer, J. Pisarek, C. Plett, P. Pracht, F. Pultar,
   J. Seibert, P. Shushkov, S. Spicher, M. Stahn, M. Steiner, T. Strunk,
   J. Stückrath, T. Rose, and J. Unsleber
   
 * started run on 2023/12/04 at 14:10:27.230     

           -------------------------------------------------
          |                Calculation Setup                |
           -------------------------------------------------

          program call               : otool_xtb /tmp/C00279_XTB.xyz --grad -c 0 -u 0 -P 1 --namespace /tmp/C00279 --input /tmp/C00279_XTB.input.tmp --acc 1.000000
          calculation namespace      : /tmp/C00279
          coordinate file            : /tmp/C00279_XTB.xyz
          omp threads                :                     1

   ID    Z sym.   atoms
    1    8 O      1, 4, 6, 8, 10-12
    2    6 C      2, 3, 5, 7
    3   15 P      9
    4    1 H      13-21

           -------------------------------------------------
          |                 G F N 2 - x T B                 |
           -------------------------------------------------

        Reference                      10.1021/acs.jctc.8b01176
      * Hamiltonian:
        H0-scaling (s, p, d)           1.850000    2.230000    2.230000
        zeta-weighting                 0.500000
      * Dispersion:
        s8                             2.700000
        a1                             0.520000
        a2                             5.000000
        s9                             5.000000
      * Repulsion:
        kExp                           1.500000    1.000000
        rExp                           1.000000
      * Coulomb:
        alpha                          2.000000
        third order                    shell-resolved
        anisotropic                    true
        a3                             3.000000
        a5                             4.000000
        cn-shift                       1.200000
        cn-exp                         4.000000
        max-rad                        5.000000


          ...................................................
          :                      SETUP                      :
          :.................................................:
          :  # basis functions                  63          :
          :  # atomic orbitals                  62          :
          :  # shells                           34          :
          :  # electrons                        72          :
          :  max. iterations                   250          :
          :  Hamiltonian                  GFN2-xTB          :
          :  restarted?                      false          :
          :  GBSA solvation                  false          :
          :  PC potential                    false          :
          :  electronic temp.          300.0000000     K    :
          :  accuracy                    1.0000000          :
          :  -> integral cutoff          0.2500000E+02      :
          :  -> integral neglect         0.1000000E-07      :
          :  -> SCF convergence          0.1000000E-05 Eh   :
          :  -> wf. convergence          0.1000000E-03 e    :
          :  Broyden damping             0.4000000          :
          ...................................................

 iter      E             dE          RMSdq      gap      omega  full diag
   1    -44.4339435 -0.444339E+02  0.713E+00    4.09       0.0  T
   2    -44.5046455 -0.707020E-01  0.409E+00    3.30       1.0  T
   3    -44.5071516 -0.250618E-02  0.159E+00    3.68       1.0  T
   4    -44.5236799 -0.165282E-01  0.603E-01    3.30       1.0  T
   5    -44.5248690 -0.118912E-02  0.265E-01    3.45       1.0  T
   6    -44.5250676 -0.198570E-03  0.842E-02    3.41       1.0  T
   7    -44.5250785 -0.109383E-04  0.333E-02    3.42       1.0  T
   8    -44.5250817 -0.318442E-05  0.123E-02    3.41       1.8  T
   9    -44.5250820 -0.274244E-06  0.490E-03    3.41       4.5  T
  10    -44.5250821 -0.114573E-06  0.145E-03    3.41      15.1  T
  11    -44.5250821 -0.504705E-08  0.463E-04    3.41      47.1  T
  12    -44.5250821 -0.676934E-09  0.186E-04    3.41     117.1  T

   *** convergence criteria satisfied after 12 iterations ***

         #    Occupation            Energy/Eh            Energy/eV
      -------------------------------------------------------------
         1        2.0000           -0.7586307             -20.6434
       ...           ...                  ...                  ...
        30        2.0000           -0.4886312             -13.2963
        31        2.0000           -0.4649088             -12.6508
        32        2.0000           -0.4489480             -12.2165
        33        2.0000           -0.4461010             -12.1390
        34        2.0000           -0.4453388             -12.1183
        35        2.0000           -0.4411488             -12.0043
        36        2.0000           -0.4259666             -11.5911 (HOMO)
        37                         -0.3004776              -8.1764 (LUMO)
        38                         -0.1026245              -2.7926
        39                         -0.0535155              -1.4562
        40                         -0.0331752              -0.9027
        41                         -0.0191678              -0.5216
       ...                                ...                  ...
        62                          1.1695780              31.8258
      -------------------------------------------------------------
                  HL-Gap            0.1254890 Eh            3.4147 eV
             Fermi-level           -0.3632221 Eh           -9.8838 eV

 SCC (total)                   0 d,  0 h,  0 min,  0.022 sec
 SCC setup                      ...        0 min,  0.000 sec (  0.696%)
 Dispersion                     ...        0 min,  0.000 sec (  0.595%)
 classical contributions        ...        0 min,  0.000 sec (  0.132%)
 integral evaluation            ...        0 min,  0.003 sec ( 15.209%)
 iterations                     ...        0 min,  0.009 sec ( 42.359%)
 molecular gradient             ...        0 min,  0.009 sec ( 40.481%)
 printout                       ...        0 min,  0.000 sec (  0.454%)

         :::::::::::::::::::::::::::::::::::::::::::::::::::::
         ::                     SUMMARY                     ::
         :::::::::::::::::::::::::::::::::::::::::::::::::::::
         :: total energy             -44.244154679019 Eh    ::
         :: gradient norm              0.098287658937 Eh/a0 ::
         :: HOMO-LUMO gap              3.414730338726 eV    ::
         ::.................................................::
         :: SCC energy               -44.525082079640 Eh    ::
         :: -> isotropic ES            0.177395982908 Eh    ::
         :: -> anisotropic ES         -0.005621361779 Eh    ::
         :: -> anisotropic XC         -0.001118810400 Eh    ::
         :: -> dispersion             -0.016190247711 Eh    ::
         :: repulsion energy           0.280931488490 Eh    ::
         :: add. restraining           0.000000000000 Eh    ::
         :: total charge              -0.000000000000 e     ::
         :::::::::::::::::::::::::::::::::::::::::::::::::::::


Property printout bound to 'properties.out'

           -------------------------------------------------
          | TOTAL ENERGY              -44.244154679019 Eh   |
          | GRADIENT NORM               0.098287658937 Eh/α |
          | HOMO-LUMO GAP               3.414730338726 eV   |
           -------------------------------------------------

------------------------------------------------------------------------
 * finished run on 2023/12/04 at 14:10:27.262     
------------------------------------------------------------------------
 total:
 * wall-time:     0 d,  0 h,  0 min,  0.032 sec
 *  cpu-time:     0 d,  0 h,  0 min,  0.028 sec
 * ratio c/w:     0.887 speedup
 SCF:
 * wall-time:     0 d,  0 h,  0 min,  0.022 sec
 *  cpu-time:     0 d,  0 h,  0 min,  0.020 sec
 * ratio c/w:     0.904 speedup


-------------------------   --------------------
FINAL SINGLE POINT ENERGY       -44.244154679020
-------------------------   --------------------

------------------------------------------------------------------------------
                         ORCA GEOMETRY RELAXATION STEP
------------------------------------------------------------------------------

Reading the OPT-File                    .... done
Getting information on internals        .... done
Copying old internal coords+grads       .... done
Making the new internal coordinates     .... (new redundants).... done
Validating the new internal coordinates .... (new redundants).... done
Calculating the B-matrix                .... done
Calculating the G,G- and P matrices     .... done
Transforming gradient to internals      .... done
Projecting the internal gradient        .... done
Number of atoms                         ....  21
Number of internal coordinates          ....  94
Current Energy                          ....   -44.244154679 Eh
Current gradient norm                   ....     0.098287659 Eh/bohr
Maximum allowed component of the step   ....  0.300
Current trust radius                    ....  0.300
Evaluating the initial hessian          ....  (Almloef) done
Projecting the Hessian                  .... done
Forming the augmented Hessian           .... done
Diagonalizing the augmented Hessian     .... done
Last element of RFO vector              ....  0.972579946
Lowest eigenvalues of augmented Hessian:
 -0.009560608  0.011043517  0.011140847  0.011164062  0.011547511
Length of the computed step             ....  0.239125644
The final length of the internal step   ....  0.239125644
Converting the step to cartesian space:
 Initial RMS(Int)=    0.0246639270
Transforming coordinates:
 Iter   0:  RMS(Cart)=    0.0562502066 RMS(Int)=    0.9111126636
 Iter   1:  RMS(Cart)=    0.0013743318 RMS(Int)=    0.0007678722
 Iter   2:  RMS(Cart)=    0.0000640350 RMS(Int)=    0.0000349804
 Iter   3:  RMS(Cart)=    0.0000038247 RMS(Int)=    0.0000024538
 Iter   4:  RMS(Cart)=    0.0000001973 RMS(Int)=    0.0000001259
 Iter   5:  RMS(Cart)=    0.0000000123 RMS(Int)=    0.0000000088
done
Storing new coordinates                 .... done

                                .--------------------.
          ----------------------|Geometry convergence|-------------------------
          Item                value                   Tolerance       Converged
          ---------------------------------------------------------------------
          RMS gradient        0.0077497290            0.0001000000      NO
          MAX gradient        0.0454548185            0.0003000000      NO
          RMS step            0.0246639270            0.0020000000      NO
          MAX step            0.0700961918            0.0040000000      NO
          ........................................................
          Max(Bonds)      0.0237      Max(Angles)    2.43
          Max(Dihed)        4.02      Max(Improp)    0.00
          ---------------------------------------------------------------------

The optimization has not yet converged - more geometry cycles are needed


    ---------------------------------------------------------------------------
                         Redundant Internal Coordinates
                            (Angstroem and degrees)

        Definition                    Value    dE/dq     Step     New-Value
    ----------------------------------------------------------------------------
     1. B(C   1,O   0)                1.2307  0.045455 -0.0237    1.2070   
     2. B(C   2,C   1)                1.5206  0.007191 -0.0096    1.5109   
     3. B(O   3,C   2)                1.4251  0.015838 -0.0167    1.4083   
     4. B(C   4,C   2)                1.5300  0.002703 -0.0037    1.5263   
     5. B(O   5,C   4)                1.4371  0.014118 -0.0156    1.4216   
     6. B(C   6,C   4)                1.5313  0.003121 -0.0043    1.5270   
     7. B(O   7,C   6)                1.4277  0.002352 -0.0025    1.4252   
     8. B(P   8,O   7)                1.6000  0.005798 -0.0035    1.5966   
     9. B(O   9,P   8)                1.4871  0.036024 -0.0144    1.4727   
    10. B(O  10,P   8)                1.5928  0.004203 -0.0025    1.5904   
    11. B(O  11,P   8)                1.5960 -0.009735  0.0058    1.6017   
    12. B(H  12,C   1)                1.1033  0.004214 -0.0063    1.0970   
    13. B(H  13,C   2)                1.0956 -0.003858  0.0056    1.1012   
    14. B(H  14,O   3)                0.9805  0.007250 -0.0078    0.9727   
    15. B(H  15,C   4)                1.0971 -0.001657  0.0024    1.0995   
    16. B(H  16,O   5)                0.9780  0.010695 -0.0114    0.9666   
    17. B(H  17,C   6)                1.0951  0.000728 -0.0011    1.0941   
    18. B(H  18,C   6)                1.0944  0.001383 -0.0020    1.0924   
    19. B(H  19,O  10)                0.9728  0.012623 -0.0132    0.9596   
    20. B(H  20,O  11)                0.9769  0.017492 -0.0186    0.9583   
    21. A(C   2,C   1,H  12)          116.34  0.001963   -0.25    116.10   
    22. A(O   0,C   1,C   2)          122.26  0.002000   -0.19    122.07   
    23. A(O   0,C   1,H  12)          121.30 -0.004044    0.68    121.97   
    24. A(C   4,C   2,H  13)          110.91  0.002764   -0.97    109.94   
    25. A(O   3,C   2,H  13)          108.69 -0.003194    0.84    109.53   
    26. A(C   1,C   2,H  13)          106.95  0.001112   -0.17    106.79   
    27. A(C   1,C   2,C   4)          109.24 -0.003598    0.55    109.79   
    28. A(C   1,C   2,O   3)          110.13 -0.000632    0.41    110.55   
    29. A(O   3,C   2,C   4)          110.83  0.003461   -0.64    110.19   
    30. A(C   2,O   3,H  14)          106.27 -0.000131    0.02    106.29   
    31. A(C   2,C   4,H  15)          110.73 -0.000346   -0.34    110.39   
    32. A(C   2,C   4,O   5)          109.37  0.004742   -1.22    108.15   
    33. A(O   5,C   4,C   6)          108.83 -0.004830    1.07    109.90   
    34. A(C   2,C   4,C   6)          112.08  0.001969   -0.83    111.25   
    35. A(C   6,C   4,H  15)          108.95  0.000609    0.05    108.99   
    36. A(O   5,C   4,H  15)          106.73 -0.002467    1.40    108.13   
    37. A(C   4,O   5,H  16)          105.34 -0.002058    0.33    105.67   
    38. A(C   4,C   6,H  18)          111.14  0.000014   -0.21    110.93   
    39. A(O   7,C   6,H  17)          107.89 -0.003414    0.81    108.70   
    40. A(C   4,C   6,H  17)          110.60  0.000465   -0.13    110.47   
    41. A(O   7,C   6,H  18)          109.59 -0.001936    0.27    109.86   
    42. A(C   4,C   6,O   7)          108.04  0.004477   -0.68    107.35   
    43. A(H  17,C   6,H  18)          109.51  0.000298   -0.02    109.49   
    44. A(C   6,O   7,P   8)          116.25  0.004058   -0.49    115.76   
    45. A(O  10,P   8,O  11)          100.66 -0.016278    2.43    103.09   
    46. A(O   9,P   8,O  11)          112.31 -0.002368    0.75    113.05   
    47. A(O   7,P   8,O  11)          104.77  0.008294   -1.06    103.71   
    48. A(O   9,P   8,O  10)          115.84  0.001151    0.00    115.84   
    49. A(O   7,P   8,O  10)          104.22  0.009576   -1.49    102.72   
    50. A(O   7,P   8,O   9)          117.19 -0.001345   -0.41    116.78   
    51. A(P   8,O  10,H  19)          111.51 -0.000899    0.12    111.63   
    52. A(P   8,O  11,H  20)          109.50  0.001845   -0.25    109.25   
    53. D(H  13,C   2,C   1,O   0)    108.14 -0.002367    2.18    110.31   
    54. D(C   4,C   2,C   1,O   0)   -131.76 -0.000413    1.22   -130.54   
    55. D(C   4,C   2,C   1,H  12)     51.79  0.001197   -3.18     48.61   
    56. D(H  13,C   2,C   1,H  12)    -68.32 -0.000757   -2.23    -70.54   
    57. D(O   3,C   2,C   1,O   0)     -9.81  0.001145    1.05     -8.76   
    58. D(O   3,C   2,C   1,H  12)    173.74  0.002755   -3.35    170.39   
    59. D(H  14,O   3,C   2,H  13)    -93.41  0.003217   -4.02    -97.43   
    60. D(H  14,O   3,C   2,C   1)     23.45  0.002341   -3.49     19.96   
    61. D(H  14,O   3,C   2,C   4)    144.45 -0.000323   -2.95    141.50   
    62. D(C   6,C   4,C   2,C   1)    172.53  0.000340    0.73    173.26   
    63. D(C   6,C   4,C   2,O   3)     51.01  0.001280    0.26     51.27   
    64. D(O   5,C   4,C   2,H  13)     50.95 -0.000441    0.27     51.23   
    65. D(O   5,C   4,C   2,O   3)    171.78 -0.000295    0.25    172.03   
    66. D(O   5,C   4,C   2,C   1)    -66.69 -0.001235    0.72    -65.97   
    67. D(C   6,C   4,C   2,H  13)    -69.82  0.001133    0.29    -69.54   
    68. D(H  15,C   4,C   2,H  13)    168.29 -0.000777    1.05    169.34   
    69. D(H  15,C   4,C   2,O   3)    -70.88 -0.000631    1.02    -69.85   
    70. D(H  15,C   4,C   2,C   1)     50.65 -0.001571    1.49     52.14   
    71. D(H  16,O   5,C   4,H  15)     71.07 -0.001530    1.06     72.12   
    72. D(H  16,O   5,C   4,C   6)    -46.36  0.001576   -0.31    -46.68   
    73. D(H  16,O   5,C   4,C   2)   -169.10 -0.000769    0.79   -168.31   
    74. D(H  18,C   6,C   4,H  15)     59.25  0.002033   -0.85     58.40   
    75. D(H  18,C   6,C   4,O   5)    175.26 -0.003219    1.44    176.70   
    76. D(H  18,C   6,C   4,C   2)    -63.65  0.000722    0.10    -63.54   
    77. D(H  17,C   6,C   4,H  15)   -178.89  0.002742   -1.12   -180.00   
    78. D(H  17,C   6,C   4,O   5)    -62.88 -0.002510    1.17    -61.70   
    79. D(H  17,C   6,C   4,C   2)     58.21  0.001431   -0.16     58.05   
    80. D(O   7,C   6,C   4,H  15)    -61.02  0.001551   -0.62    -61.63   
    81. D(O   7,C   6,C   4,O   5)     55.00 -0.003701    1.67     56.67   
    82. D(O   7,C   6,C   4,C   2)    176.09  0.000240    0.34    176.43   
    83. D(P   8,O   7,C   6,C   4)    172.02  0.000762   -1.37    170.65   
    84. D(P   8,O   7,C   6,H  18)     50.79 -0.000848   -0.85     49.94   
    85. D(P   8,O   7,C   6,H  17)    -68.38  0.001901   -1.45    -69.83   
    86. D(O  11,P   8,O   7,C   6)     73.11  0.003902    1.59     74.70   
    87. D(O  10,P   8,O   7,C   6)    178.43 -0.007734    3.36    181.79   
    88. D(O   9,P   8,O   7,C   6)    -52.11  0.001182    1.75    -50.35   
    89. D(H  19,O  10,P   8,O  11)     51.75  0.006135   -0.12     51.63   
    90. D(H  19,O  10,P   8,O   9)    173.10 -0.007268    2.46    175.55   
    91. D(H  19,O  10,P   8,O   7)    -56.63 -0.000078    0.64    -55.99   
    92. D(H  20,O  11,P   8,O  10)     95.70 -0.006813    3.82     99.52   
    93. D(H  20,O  11,P   8,O   9)    -28.12  0.003094    1.94    -26.19   
    94. D(H  20,O  11,P   8,O   7)   -156.36  0.000302    2.74   -153.62   
    ----------------------------------------------------------------------------

         *************************************************************
         *                GEOMETRY OPTIMIZATION CYCLE   2            *
         *************************************************************
---------------------------------
CARTESIAN COORDINATES (ANGSTROEM)
---------------------------------
  O    -4.153550    1.336230    0.051462
  C    -2.990998    1.660734    0.046255
  C    -1.928420    0.823221   -0.626400
  O    -2.459279   -0.416731   -1.031546
  C    -0.758021    0.608224    0.329346
  O    -0.140358    1.866999    0.563542
  C     0.259949   -0.369435   -0.253422
  O     1.349854   -0.444055    0.661875
  P     2.426958   -1.584994    0.366775
  O     1.908407   -2.945514    0.145676
  O     3.449921   -1.421642    1.573455
  O     3.249264   -1.016671   -0.884783
  H    -2.641576    2.574455    0.542645
  H    -1.592366    1.386384   -1.511019
  H    -3.424319   -0.301059   -1.069320
  H    -1.116768    0.218738    1.292919
  H     0.693349    1.669445    1.010985
  H     0.633629   -0.004804   -1.214894
  H    -0.181741   -1.359707   -0.386020
  H     3.801293   -0.529991    1.621084
  H     3.614571   -1.749927   -1.382016

----------------------------
CARTESIAN COORDINATES (A.U.)
----------------------------
  NO LB    ZA    FRAG    MASS        X           Y           Z
   0 O   8.0000    0    15.999   -7.849071    2.525109    0.097250
   1 C   6.0000    0    12.011   -5.652167    3.138333    0.087410
   2 C   6.0000    0    12.011   -3.644185    1.555662   -1.183725
   3 O   8.0000    0    15.999   -4.647364   -0.787508   -1.949339
   4 C   6.0000    0    12.011   -1.432452    1.149377    0.622373
   5 O   8.0000    0    15.999   -0.265237    3.528117    1.064940
   6 C   6.0000    0    12.011    0.491233   -0.698131   -0.478899
   7 O   8.0000    0    15.999    2.550855   -0.839143    1.250763
   8 P  15.0000    0    30.974    4.586285   -2.995205    0.693104
   9 O   8.0000    0    15.999    3.606367   -5.566215    0.275287
  10 O   8.0000    0    15.999    6.519406   -2.686514    2.973400
  11 O   8.0000    0    15.999    6.140219   -1.921230   -1.671998
  12 H   1.0000    0     1.008   -4.991854    4.865015    1.025451
  13 H   1.0000    0     1.008   -3.009136    2.619886   -2.855412
  14 H   1.0000    0     1.008   -6.471025   -0.568919   -2.020721
  15 H   1.0000    0     1.008   -2.110386    0.413354    2.443263
  16 H   1.0000    0     1.008    1.310239    3.154795    1.910485
  17 H   1.0000    0     1.008    1.197385   -0.009078   -2.295817
  18 H   1.0000    0     1.008   -0.343441   -2.569474   -0.729472
  19 H   1.0000    0     1.008    7.183403   -1.001539    3.063404
  20 H   1.0000    0     1.008    6.830548   -3.306882   -2.611631

      -----------------------------------------------------------      
     |                   =====================                   |     
     |                           x T B                           |     
     |                   =====================                   |     
     |                         S. Grimme                         |     
     |          Mulliken Center for Theoretical Chemistry        |     
     |                    University of Bonn                     |     
      -----------------------------------------------------------      

   * xtb version 6.5.1 (579679a) compiled by 'ehlert@majestix' on 2022-07-11

   xtb is free software: you can redistribute it and/or modify it under
   the terms of the GNU Lesser General Public License as published by
   the Free Software Foundation, either version 3 of the License, or
   (at your option) any later version.
   
   xtb is distributed in the hope that it will be useful,
   but WITHOUT ANY WARRANTY; without even the implied warranty of
   MERCHANTABILITY or FITNESS FOR A PARTICULAR PURPOSE.  See the
   GNU Lesser General Public License for more details.
   
   Cite this work as:
   * C. Bannwarth, E. Caldeweyher, S. Ehlert, A. Hansen, P. Pracht,
     J. Seibert, S. Spicher, S. Grimme, WIREs Comput. Mol. Sci., 2020, 11,
     e01493. DOI: 10.1002/wcms.1493
   
   for GFN2-xTB:
   * C. Bannwarth, S. Ehlert and S. Grimme., J. Chem. Theory Comput., 2019,
     15, 1652-1671. DOI: 10.1021/acs.jctc.8b01176
   for GFN1-xTB:
   * S. Grimme, C. Bannwarth, P. Shushkov, J. Chem. Theory Comput., 2017,
     13, 1989-2009. DOI: 10.1021/acs.jctc.7b00118
   for GFN0-xTB:
   * P. Pracht, E. Caldeweyher, S. Ehlert, S. Grimme, ChemRxiv, 2019, preprint.
     DOI: 10.26434/chemrxiv.8326202.v1
   for GFN-FF:
   * S. Spicher and S. Grimme, Angew. Chem. Int. Ed., 2020, 59, 15665-15673.
     DOI: 10.1002/anie.202004239
   
   for ALPB and GBSA implicit solvation:
   * S. Ehlert, M. Stahn, S. Spicher, S. Grimme, J. Chem. Theory Comput.,
     2021, 17, 4250-4261. DOI: 10.1021/acs.jctc.1c00471
   
   for DFT-D4:
   * E. Caldeweyher, C. Bannwarth and S. Grimme, J. Chem. Phys., 2017,
     147, 034112. DOI: 10.1063/1.4993215
   * E. Caldeweyher, S. Ehlert, A. Hansen, H. Neugebauer, S. Spicher,
     C. Bannwarth and S. Grimme, J. Chem. Phys., 2019, 150, 154122.
     DOI: 10.1063/1.5090222
   * E. Caldeweyher, J.-M. Mewes, S. Ehlert and S. Grimme, Phys. Chem. Chem. Phys.
     2020, 22, 8499-8512. DOI: 10.1039/D0CP00502A
   
   for sTDA-xTB:
   * S. Grimme and C. Bannwarth, J. Chem. Phys., 2016, 145, 054103.
     DOI: 10.1063/1.4959605
   
   in the mass-spec context:
   * V. Asgeirsson, C. Bauer and S. Grimme, Chem. Sci., 2017, 8, 4879.
     DOI: 10.1039/c7sc00601b
   * J. Koopman and S. Grimme, ACS Omega 2019, 4, 12, 15120-15133.
     DOI: 10.1021/acsomega.9b02011
   
   for metadynamics refer to:
   * S. Grimme, J. Chem. Theory Comput., 2019, 155, 2847-2862
     DOI: 10.1021/acs.jctc.9b00143
   
   for SPH calculations refer to:
   * S. Spicher and S. Grimme, J. Chem. Theory Comput., 2021, 17, 1701-1714
     DOI: 10.1021/acs.jctc.0c01306
   
   with help from (in alphabetical order)
   P. Atkinson, C. Bannwarth, F. Bohle, G. Brandenburg, E. Caldeweyher
   M. Checinski, S. Dohm, S. Ehlert, S. Ehrlich, I. Gerasimov, C. Hölzer
   A. Katbashev, J. Koopman, C. Lavigne, S. Lehtola, F. März, M. Müller,
   F. Musil, H. Neugebauer, J. Pisarek, C. Plett, P. Pracht, F. Pultar,
   J. Seibert, P. Shushkov, S. Spicher, M. Stahn, M. Steiner, T. Strunk,
   J. Stückrath, T. Rose, and J. Unsleber
   
 * started run on 2023/12/04 at 14:10:27.324     

           -------------------------------------------------
          |                Calculation Setup                |
           -------------------------------------------------

          program call               : otool_xtb /tmp/C00279_XTB.xyz --grad -c 0 -u 0 -P 1 --namespace /tmp/C00279 --input /tmp/C00279_XTB.input.tmp --acc 1.000000
          calculation namespace      : /tmp/C00279
          coordinate file            : /tmp/C00279_XTB.xyz
          omp threads                :                     1

   ID    Z sym.   atoms
    1    8 O      1, 4, 6, 8, 10-12
    2    6 C      2, 3, 5, 7
    3   15 P      9
    4    1 H      13-21

           -------------------------------------------------
          |                 G F N 2 - x T B                 |
           -------------------------------------------------

        Reference                      10.1021/acs.jctc.8b01176
      * Hamiltonian:
        H0-scaling (s, p, d)           1.850000    2.230000    2.230000
        zeta-weighting                 0.500000
      * Dispersion:
        s8                             2.700000
        a1                             0.520000
        a2                             5.000000
        s9                             5.000000
      * Repulsion:
        kExp                           1.500000    1.000000
        rExp                           1.000000
      * Coulomb:
        alpha                          2.000000
        third order                    shell-resolved
        anisotropic                    true
        a3                             3.000000
        a5                             4.000000
        cn-shift                       1.200000
        cn-exp                         4.000000
        max-rad                        5.000000

q/qsh data taken from xtbrestart
CAMM data taken from xtbrestart

          ...................................................
          :                      SETUP                      :
          :.................................................:
          :  # basis functions                  63          :
          :  # atomic orbitals                  62          :
          :  # shells                           34          :
          :  # electrons                        72          :
          :  max. iterations                   250          :
          :  Hamiltonian                  GFN2-xTB          :
          :  restarted?                       true          :
          :  GBSA solvation                  false          :
          :  PC potential                    false          :
          :  electronic temp.          300.0000000     K    :
          :  accuracy                    1.0000000          :
          :  -> integral cutoff          0.2500000E+02      :
          :  -> integral neglect         0.1000000E-07      :
          :  -> SCF convergence          0.1000000E-05 Eh   :
          :  -> wf. convergence          0.1000000E-03 e    :
          :  Broyden damping             0.4000000          :
          ...................................................

 iter      E             dE          RMSdq      gap      omega  full diag
   1    -44.5521031 -0.445521E+02  0.270E-01    3.61       0.0  T
   2    -44.5521389 -0.358254E-04  0.158E-01    3.58       1.0  T
   3    -44.5521394 -0.525063E-06  0.324E-02    3.58       1.0  T
   4    -44.5521446 -0.519609E-05  0.112E-02    3.58       2.0  T
   5    -44.5521448 -0.153331E-06  0.529E-03    3.58       4.1  T
   6    -44.5521450 -0.188549E-06  0.209E-03    3.58      10.4  T
   7    -44.5521450 -0.666012E-08  0.691E-04    3.58      31.6  T
   8    -44.5521450 -0.159473E-08  0.262E-04    3.58      83.4  T

   *** convergence criteria satisfied after 8 iterations ***

         #    Occupation            Energy/Eh            Energy/eV
      -------------------------------------------------------------
         1        2.0000           -0.7584117             -20.6374
       ...           ...                  ...                  ...
        30        2.0000           -0.4871140             -13.2550
        31        2.0000           -0.4638751             -12.6227
        32        2.0000           -0.4502472             -12.2519
        33        2.0000           -0.4470084             -12.1637
        34        2.0000           -0.4438014             -12.0765
        35        2.0000           -0.4424408             -12.0394
        36        2.0000           -0.4239426             -11.5361 (HOMO)
        37                         -0.2923727              -7.9559 (LUMO)
        38                         -0.0865185              -2.3543
        39                         -0.0433696              -1.1801
        40                         -0.0266342              -0.7248
        41                         -0.0095442              -0.2597
       ...                                ...                  ...
        62                          1.1926075              32.4525
      -------------------------------------------------------------
                  HL-Gap            0.1315699 Eh            3.5802 eV
             Fermi-level           -0.3581577 Eh           -9.7460 eV

 SCC (total)                   0 d,  0 h,  0 min,  0.019 sec
 SCC setup                      ...        0 min,  0.000 sec (  0.821%)
 Dispersion                     ...        0 min,  0.000 sec (  0.673%)
 classical contributions        ...        0 min,  0.000 sec (  0.159%)
 integral evaluation            ...        0 min,  0.003 sec ( 16.774%)
 iterations                     ...        0 min,  0.006 sec ( 33.344%)
 molecular gradient             ...        0 min,  0.009 sec ( 47.639%)
 printout                       ...        0 min,  0.000 sec (  0.519%)

         :::::::::::::::::::::::::::::::::::::::::::::::::::::
         ::                     SUMMARY                     ::
         :::::::::::::::::::::::::::::::::::::::::::::::::::::
         :: total energy             -44.250701564976 Eh    ::
         :: gradient norm              0.046174255804 Eh/a0 ::
         :: HOMO-LUMO gap              3.580199137844 eV    ::
         ::.................................................::
         :: SCC energy               -44.552144995499 Eh    ::
         :: -> isotropic ES            0.174692800971 Eh    ::
         :: -> anisotropic ES         -0.005760867082 Eh    ::
         :: -> anisotropic XC         -0.001925807477 Eh    ::
         :: -> dispersion             -0.016330098012 Eh    ::
         :: repulsion energy           0.301444175715 Eh    ::
         :: add. restraining           0.000000000000 Eh    ::
         :: total charge              -0.000000000000 e     ::
         :::::::::::::::::::::::::::::::::::::::::::::::::::::


Property printout bound to 'properties.out'

           -------------------------------------------------
          | TOTAL ENERGY              -44.250701564976 Eh   |
          | GRADIENT NORM               0.046174255804 Eh/α |
          | HOMO-LUMO GAP               3.580199137844 eV   |
           -------------------------------------------------

------------------------------------------------------------------------
 * finished run on 2023/12/04 at 14:10:27.352     
------------------------------------------------------------------------
 total:
 * wall-time:     0 d,  0 h,  0 min,  0.028 sec
 *  cpu-time:     0 d,  0 h,  0 min,  0.028 sec
 * ratio c/w:     0.992 speedup
 SCF:
 * wall-time:     0 d,  0 h,  0 min,  0.019 sec
 *  cpu-time:     0 d,  0 h,  0 min,  0.020 sec
 * ratio c/w:     1.053 speedup


-------------------------   --------------------
FINAL SINGLE POINT ENERGY       -44.250701564980
-------------------------   --------------------

------------------------------------------------------------------------------
                         ORCA GEOMETRY RELAXATION STEP
------------------------------------------------------------------------------

Reading the OPT-File                    .... done
Getting information on internals        .... done
Copying old internal coords+grads       .... done
Making the new internal coordinates     .... (new redundants).... done
Validating the new internal coordinates .... (new redundants).... done
Calculating the B-matrix                .... done
Calculating the G,G- and P matrices     .... done
Transforming gradient to internals      .... done
Projecting the internal gradient        .... done
Number of atoms                         ....  21
Number of internal coordinates          ....  94
Current Energy                          ....   -44.250701565 Eh
Current gradient norm                   ....     0.046174256 Eh/bohr
Maximum allowed component of the step   ....  0.300
Current trust radius                    ....  0.300
Updating the Hessian (BFGS)             .... done
Forming the augmented Hessian           .... done
Diagonalizing the augmented Hessian     .... done
Last element of RFO vector              ....  0.952467984
Lowest eigenvalues of augmented Hessian:
 -0.004015797  0.011043317  0.011143121  0.011164434  0.012699786
Length of the computed step             ....  0.319841410
Warning: the length of the step is outside the trust region - taking restricted step instead
The input lambda is                     ....    -0.004016
   iter:   1  x=   -0.005156  g=   10.786289 f(x)=     0.012299
   iter:   2  x=   -0.005284  g=    8.877763 f(x)=     0.001136
   iter:   3  x=   -0.005285  g=    8.693181 f(x)=     0.000012
   iter:   4  x=   -0.005285  g=    8.691240 f(x)=     0.000000
   iter:   5  x=   -0.005285  g=    8.691240 f(x)=     0.000000
The output lambda is                    ....    -0.005285 (5 iterations)
The final length of the internal step   ....  0.300000000
Converting the step to cartesian space:
 Initial RMS(Int)=    0.0309426374
Transforming coordinates:
 Iter   0:  RMS(Cart)=    0.0594006564 RMS(Int)=    0.0309035439
 Iter   1:  RMS(Cart)=    0.0020521869 RMS(Int)=    0.0013157074
 Iter   2:  RMS(Cart)=    0.0001196100 RMS(Int)=    0.0000826368
 Iter   3:  RMS(Cart)=    0.0000091080 RMS(Int)=    0.0000069638
 Iter   4:  RMS(Cart)=    0.0000007023 RMS(Int)=    0.0000005738
 Iter   5:  RMS(Cart)=    0.0000000582 RMS(Int)=    0.0000000468
done
Storing new coordinates                 .... done

                                .--------------------.
          ----------------------|Geometry convergence|-------------------------
          Item                value                   Tolerance       Converged
          ---------------------------------------------------------------------
          Energy change      -0.0065468860            0.0000050000      NO
          RMS gradient        0.0031638379            0.0001000000      NO
          MAX gradient        0.0213368126            0.0003000000      NO
          RMS step            0.0309426374            0.0020000000      NO
          MAX step            0.0968077413            0.0040000000      NO
          ........................................................
          Max(Bonds)      0.0161      Max(Angles)    2.09
          Max(Dihed)        5.55      Max(Improp)    0.00
          ---------------------------------------------------------------------

The optimization has not yet converged - more geometry cycles are needed


    ---------------------------------------------------------------------------
                         Redundant Internal Coordinates
                            (Angstroem and degrees)

        Definition                    Value    dE/dq     Step     New-Value
    ----------------------------------------------------------------------------
     1. B(C   1,O   0)                1.2070  0.010013 -0.0131    1.1939   
     2. B(C   2,C   1)                1.5109 -0.000413 -0.0011    1.5098   
     3. B(O   3,C   2)                1.4083  0.005240 -0.0120    1.3964   
     4. B(C   4,C   2)                1.5263 -0.003625  0.0070    1.5332   
     5. B(O   5,C   4)                1.4216  0.006032 -0.0135    1.4081   
     6. B(C   6,C   4)                1.5270 -0.000225 -0.0004    1.5266   
     7. B(O   7,C   6)                1.4252  0.000491 -0.0013    1.4239   
     8. B(P   8,O   7)                1.5966  0.000746 -0.0014    1.5951   
     9. B(O   9,P   8)                1.4727  0.021337 -0.0161    1.4565   
    10. B(O  10,P   8)                1.5904  0.004174 -0.0043    1.5861   
    11. B(O  11,P   8)                1.6017 -0.005386  0.0061    1.6079   
    12. B(H  12,C   1)                1.0970 -0.000886  0.0008    1.0978   
    13. B(H  13,C   2)                1.1012 -0.001779  0.0052    1.1064   
    14. B(H  14,O   3)                0.9727  0.000149 -0.0019    0.9708   
    15. B(H  15,C   4)                1.0995 -0.000659  0.0020    1.1015   
    16. B(H  16,O   5)                0.9666  0.001091 -0.0042    0.9624   
    17. B(H  17,C   6)                1.0941  0.000144 -0.0005    1.0935   
    18. B(H  18,C   6)                1.0924  0.000255 -0.0010    1.0914   
    19. B(H  19,O  10)                0.9596  0.001820 -0.0057    0.9539   
    20. B(H  20,O  11)                0.9583  0.002143 -0.0074    0.9510   
    21. A(C   2,C   1,H  12)          116.05  0.002900   -0.98    115.07   
    22. A(O   0,C   1,C   2)          122.02  0.000224   -0.21    121.81   
    23. A(O   0,C   1,H  12)          121.92 -0.003139    0.71    122.63   
    24. A(C   4,C   2,H  13)          109.94  0.002638   -1.54    108.40   
    25. A(O   3,C   2,H  13)          109.52 -0.001627    0.87    110.39   
    26. A(C   1,C   2,H  13)          106.78  0.000074   -0.19    106.59   
    27. A(C   1,C   2,C   4)          109.79 -0.001682    0.53    110.32   
    28. A(C   1,C   2,O   3)          110.55  0.000460    0.33    110.88   
    29. A(O   3,C   2,C   4)          110.19  0.000157   -0.00    110.19   
    30. A(C   2,O   3,H  14)          106.29 -0.001471    0.37    106.65   
    31. A(C   2,C   4,H  15)          110.39  0.000318   -0.62    109.77   
    32. A(C   2,C   4,O   5)          108.16  0.001557   -0.71    107.44   
    33. A(O   5,C   4,C   6)          109.89 -0.001853    1.00    110.89   
    34. A(C   2,C   4,C   6)          111.25  0.000764   -0.75    110.50   
    35. A(C   6,C   4,H  15)          108.98  0.000594   -0.30    108.67   
    36. A(O   5,C   4,H  15)          108.12 -0.001468    1.50    109.63   
    37. A(C   4,O   5,H  16)          105.67 -0.002952    0.80    106.46   
    38. A(C   4,C   6,H  18)          110.93  0.000242   -0.25    110.67   
    39. A(O   7,C   6,H  17)          108.70 -0.001384    0.72    109.42   
    40. A(C   4,C   6,H  17)          110.47  0.000512   -0.22    110.25   
    41. A(O   7,C   6,H  18)          109.86 -0.000692    0.25    110.11   
    42. A(C   4,C   6,O   7)          107.35  0.001220   -0.39    106.96   
    43. A(H  17,C   6,H  18)          109.48  0.000071   -0.09    109.40   
    44. A(C   6,O   7,P   8)          115.76  0.001622   -0.40    115.36   
    45. A(O  10,P   8,O  11)          103.07 -0.007192    2.09    105.16   
    46. A(O   9,P   8,O  11)          113.03 -0.001089    0.71    113.74   
    47. A(O   7,P   8,O  11)          103.72  0.004335   -1.10    102.62   
    48. A(O   9,P   8,O  10)          115.80  0.000548    0.03    115.83   
    49. A(O   7,P   8,O  10)          102.73  0.005166   -1.54    101.18   
    50. A(O   7,P   8,O   9)          116.77 -0.001670   -0.12    116.65   
    51. A(P   8,O  10,H  19)          111.63 -0.001417    0.32    111.95   
    52. A(P   8,O  11,H  20)          109.25  0.000440   -0.14    109.10   
    53. D(H  13,C   2,C   1,O   0)    110.31 -0.000671   -2.67    107.64   
    54. D(C   4,C   2,C   1,O   0)   -130.54  0.001605   -4.34   -134.87   
    55. D(C   4,C   2,C   1,H  12)     48.61  0.000446    2.44     51.04   
    56. D(H  13,C   2,C   1,H  12)    -70.55 -0.001830    4.10    -66.44   
    57. D(O   3,C   2,C   1,O   0)     -8.76  0.000987   -3.78    -12.54   
    58. D(O   3,C   2,C   1,H  12)    170.39 -0.000172    2.99    173.38   
    59. D(H  14,O   3,C   2,H  13)    -97.43  0.002394   -5.55   -102.98   
    60. D(H  14,O   3,C   2,C   1)     19.96  0.001772   -5.07     14.89   
    61. D(H  14,O   3,C   2,C   4)    141.50  0.000067   -4.20    137.31   
    62. D(C   6,C   4,C   2,C   1)    173.26  0.000172    1.10    174.37   
    63. D(C   6,C   4,C   2,O   3)     51.27  0.000601    0.34     51.61   
    64. D(O   5,C   4,C   2,H  13)     51.23  0.000011    0.58     51.81   
    65. D(O   5,C   4,C   2,O   3)    172.04 -0.000211    0.65    172.69   
    66. D(O   5,C   4,C   2,C   1)    -65.97 -0.000641    1.41    -64.56   
    67. D(C   6,C   4,C   2,H  13)    -69.54  0.000823    0.27    -69.27   
    68. D(H  15,C   4,C   2,H  13)    169.34 -0.000654    1.62    170.95   
    69. D(H  15,C   4,C   2,O   3)    -69.85 -0.000876    1.69    -68.16   
    70. D(H  15,C   4,C   2,C   1)     52.14 -0.001306    2.45     54.59   
    71. D(H  16,O   5,C   4,H  15)     72.14 -0.000723    1.08     73.22   
    72. D(H  16,O   5,C   4,C   6)    -46.69  0.000491    0.06    -46.63   
    73. D(H  16,O   5,C   4,C   2)   -168.31 -0.000294    0.80   -167.51   
    74. D(H  18,C   6,C   4,H  15)     58.40  0.001037   -0.89     57.51   
    75. D(H  18,C   6,C   4,O   5)    176.71 -0.001475    1.31    178.02   
    76. D(H  18,C   6,C   4,C   2)    -63.55 -0.000255    0.61    -62.93   
    77. D(H  17,C   6,C   4,H  15)    179.99  0.001638   -1.32    178.68   
    78. D(H  17,C   6,C   4,O   5)    -61.70 -0.000875    0.88    -60.82   
    79. D(H  17,C   6,C   4,C   2)     58.05  0.000345    0.18     58.23   
    80. D(O   7,C   6,C   4,H  15)    -61.63  0.000981   -0.80    -62.43   
    81. D(O   7,C   6,C   4,O   5)     56.67 -0.001532    1.40     58.07   
    82. D(O   7,C   6,C   4,C   2)    176.42 -0.000311    0.70    177.12   
    83. D(P   8,O   7,C   6,C   4)    170.65  0.000597   -2.12    168.53   
    84. D(P   8,O   7,C   6,H  18)     49.94 -0.000035   -1.72     48.22   
    85. D(P   8,O   7,C   6,H  17)    -69.84  0.001135   -2.20    -72.03   
    86. D(O  11,P   8,O   7,C   6)     74.70  0.001218    2.39     77.08   
    87. D(O  10,P   8,O   7,C   6)   -178.21 -0.003488    3.77   -174.45   
    88. D(O   9,P   8,O   7,C   6)    -50.35  0.000305    2.42    -47.93   
    89. D(H  19,O  10,P   8,O  11)     51.61  0.003117    0.40     52.01   
    90. D(H  19,O  10,P   8,O   9)    175.56 -0.003245    2.77    178.33   
    91. D(H  19,O  10,P   8,O   7)    -55.97 -0.000927    1.36    -54.61   
    92. D(H  20,O  11,P   8,O  10)     99.55 -0.004046    4.76    104.31   
    93. D(H  20,O  11,P   8,O   9)    -26.21  0.000891    2.99    -23.22   
    94. D(H  20,O  11,P   8,O   7)   -153.62  0.000549    3.47   -150.15   
    ----------------------------------------------------------------------------

         *************************************************************
         *                GEOMETRY OPTIMIZATION CYCLE   3            *
         *************************************************************
---------------------------------
CARTESIAN COORDINATES (ANGSTROEM)
---------------------------------
  O    -4.146054    1.353522    0.004068
  C    -2.989717    1.646758    0.052530
  C    -1.925017    0.803898   -0.607487
  O    -2.439889   -0.435165   -0.994095
  C    -0.735789    0.610038    0.340664
  O    -0.158368    1.875721    0.558426
  C     0.280204   -0.354113   -0.266503
  O     1.376969   -0.426225    0.638683
  P     2.427914   -1.590267    0.347260
  O     1.881027   -2.918174    0.104131
  O     3.388318   -1.459459    1.602702
  O     3.271048   -1.002128   -0.889054
  H    -2.634863    2.590729    0.486221
  H    -1.577560    1.369918   -1.492308
  H    -3.406972   -0.358002   -0.958268
  H    -1.086823    0.194060    1.298256
  H     0.690362    1.718693    0.984201
  H     0.629577    0.022623   -1.231826
  H    -0.160422   -1.343442   -0.401588
  H     3.734703   -0.575597    1.696095
  H     3.581153   -1.723488   -1.425508

----------------------------
CARTESIAN COORDINATES (A.U.)
----------------------------
  NO LB    ZA    FRAG    MASS        X           Y           Z
   0 O   8.0000    0    15.999   -7.834907    2.557785    0.007687
   1 C   6.0000    0    12.011   -5.649746    3.111922    0.099268
   2 C   6.0000    0    12.011   -3.637755    1.519148   -1.147984
   3 O   8.0000    0    15.999   -4.610721   -0.822342   -1.878567
   4 C   6.0000    0    12.011   -1.390440    1.152805    0.643763
   5 O   8.0000    0    15.999   -0.299272    3.544598    1.055272
   6 C   6.0000    0    12.011    0.529510   -0.669176   -0.503618
   7 O   8.0000    0    15.999    2.602094   -0.805449    1.206937
   8 P  15.0000    0    30.974    4.588093   -3.005169    0.656226
   9 O   8.0000    0    15.999    3.554625   -5.514550    0.196779
  10 O   8.0000    0    15.999    6.402993   -2.757978    3.028668
  11 O   8.0000    0    15.999    6.181384   -1.893747   -1.680069
  12 H   1.0000    0     1.008   -4.979170    4.895768    0.918825
  13 H   1.0000    0     1.008   -2.981157    2.588771   -2.820054
  14 H   1.0000    0     1.008   -6.438245   -0.676525   -1.810864
  15 H   1.0000    0     1.008   -2.053798    0.366720    2.453349
  16 H   1.0000    0     1.008    1.304594    3.247858    1.859870
  17 H   1.0000    0     1.008    1.189728    0.042751   -2.327814
  18 H   1.0000    0     1.008   -0.303153   -2.538737   -0.758891
  19 H   1.0000    0     1.008    7.057566   -1.087721    3.205155
  20 H   1.0000    0     1.008    6.767399   -3.256920   -2.693820

      -----------------------------------------------------------      
     |                   =====================                   |     
     |                           x T B                           |     
     |                   =====================                   |     
     |                         S. Grimme                         |     
     |          Mulliken Center for Theoretical Chemistry        |     
     |                    University of Bonn                     |     
      -----------------------------------------------------------      

   * xtb version 6.5.1 (579679a) compiled by 'ehlert@majestix' on 2022-07-11

   xtb is free software: you can redistribute it and/or modify it under
   the terms of the GNU Lesser General Public License as published by
   the Free Software Foundation, either version 3 of the License, or
   (at your option) any later version.
   
   xtb is distributed in the hope that it will be useful,
   but WITHOUT ANY WARRANTY; without even the implied warranty of
   MERCHANTABILITY or FITNESS FOR A PARTICULAR PURPOSE.  See the
   GNU Lesser General Public License for more details.
   
   Cite this work as:
   * C. Bannwarth, E. Caldeweyher, S. Ehlert, A. Hansen, P. Pracht,
     J. Seibert, S. Spicher, S. Grimme, WIREs Comput. Mol. Sci., 2020, 11,
     e01493. DOI: 10.1002/wcms.1493
   
   for GFN2-xTB:
   * C. Bannwarth, S. Ehlert and S. Grimme., J. Chem. Theory Comput., 2019,
     15, 1652-1671. DOI: 10.1021/acs.jctc.8b01176
   for GFN1-xTB:
   * S. Grimme, C. Bannwarth, P. Shushkov, J. Chem. Theory Comput., 2017,
     13, 1989-2009. DOI: 10.1021/acs.jctc.7b00118
   for GFN0-xTB:
   * P. Pracht, E. Caldeweyher, S. Ehlert, S. Grimme, ChemRxiv, 2019, preprint.
     DOI: 10.26434/chemrxiv.8326202.v1
   for GFN-FF:
   * S. Spicher and S. Grimme, Angew. Chem. Int. Ed., 2020, 59, 15665-15673.
     DOI: 10.1002/anie.202004239
   
   for ALPB and GBSA implicit solvation:
   * S. Ehlert, M. Stahn, S. Spicher, S. Grimme, J. Chem. Theory Comput.,
     2021, 17, 4250-4261. DOI: 10.1021/acs.jctc.1c00471
   
   for DFT-D4:
   * E. Caldeweyher, C. Bannwarth and S. Grimme, J. Chem. Phys., 2017,
     147, 034112. DOI: 10.1063/1.4993215
   * E. Caldeweyher, S. Ehlert, A. Hansen, H. Neugebauer, S. Spicher,
     C. Bannwarth and S. Grimme, J. Chem. Phys., 2019, 150, 154122.
     DOI: 10.1063/1.5090222
   * E. Caldeweyher, J.-M. Mewes, S. Ehlert and S. Grimme, Phys. Chem. Chem. Phys.
     2020, 22, 8499-8512. DOI: 10.1039/D0CP00502A
   
   for sTDA-xTB:
   * S. Grimme and C. Bannwarth, J. Chem. Phys., 2016, 145, 054103.
     DOI: 10.1063/1.4959605
   
   in the mass-spec context:
   * V. Asgeirsson, C. Bauer and S. Grimme, Chem. Sci., 2017, 8, 4879.
     DOI: 10.1039/c7sc00601b
   * J. Koopman and S. Grimme, ACS Omega 2019, 4, 12, 15120-15133.
     DOI: 10.1021/acsomega.9b02011
   
   for metadynamics refer to:
   * S. Grimme, J. Chem. Theory Comput., 2019, 155, 2847-2862
     DOI: 10.1021/acs.jctc.9b00143
   
   for SPH calculations refer to:
   * S. Spicher and S. Grimme, J. Chem. Theory Comput., 2021, 17, 1701-1714
     DOI: 10.1021/acs.jctc.0c01306
   
   with help from (in alphabetical order)
   P. Atkinson, C. Bannwarth, F. Bohle, G. Brandenburg, E. Caldeweyher
   M. Checinski, S. Dohm, S. Ehlert, S. Ehrlich, I. Gerasimov, C. Hölzer
   A. Katbashev, J. Koopman, C. Lavigne, S. Lehtola, F. März, M. Müller,
   F. Musil, H. Neugebauer, J. Pisarek, C. Plett, P. Pracht, F. Pultar,
   J. Seibert, P. Shushkov, S. Spicher, M. Stahn, M. Steiner, T. Strunk,
   J. Stückrath, T. Rose, and J. Unsleber
   
 * started run on 2023/12/04 at 14:10:27.416     

           -------------------------------------------------
          |                Calculation Setup                |
           -------------------------------------------------

          program call               : otool_xtb /tmp/C00279_XTB.xyz --grad -c 0 -u 0 -P 1 --namespace /tmp/C00279 --input /tmp/C00279_XTB.input.tmp --acc 1.000000
          calculation namespace      : /tmp/C00279
          coordinate file            : /tmp/C00279_XTB.xyz
          omp threads                :                     1

   ID    Z sym.   atoms
    1    8 O      1, 4, 6, 8, 10-12
    2    6 C      2, 3, 5, 7
    3   15 P      9
    4    1 H      13-21

           -------------------------------------------------
          |                 G F N 2 - x T B                 |
           -------------------------------------------------

        Reference                      10.1021/acs.jctc.8b01176
      * Hamiltonian:
        H0-scaling (s, p, d)           1.850000    2.230000    2.230000
        zeta-weighting                 0.500000
      * Dispersion:
        s8                             2.700000
        a1                             0.520000
        a2                             5.000000
        s9                             5.000000
      * Repulsion:
        kExp                           1.500000    1.000000
        rExp                           1.000000
      * Coulomb:
        alpha                          2.000000
        third order                    shell-resolved
        anisotropic                    true
        a3                             3.000000
        a5                             4.000000
        cn-shift                       1.200000
        cn-exp                         4.000000
        max-rad                        5.000000

q/qsh data taken from xtbrestart
CAMM data taken from xtbrestart

          ...................................................
          :                      SETUP                      :
          :.................................................:
          :  # basis functions                  63          :
          :  # atomic orbitals                  62          :
          :  # shells                           34          :
          :  # electrons                        72          :
          :  max. iterations                   250          :
          :  Hamiltonian                  GFN2-xTB          :
          :  restarted?                       true          :
          :  GBSA solvation                  false          :
          :  PC potential                    false          :
          :  electronic temp.          300.0000000     K    :
          :  accuracy                    1.0000000          :
          :  -> integral cutoff          0.2500000E+02      :
          :  -> integral neglect         0.1000000E-07      :
          :  -> SCF convergence          0.1000000E-05 Eh   :
          :  -> wf. convergence          0.1000000E-03 e    :
          :  Broyden damping             0.4000000          :
          ...................................................

 iter      E             dE          RMSdq      gap      omega  full diag
   1    -44.5652757 -0.445653E+02  0.308E-01    3.69       0.0  T
   2    -44.5653101 -0.344009E-04  0.181E-01    3.68       1.0  T
   3    -44.5653126 -0.252068E-05  0.331E-02    3.68       1.0  T
   4    -44.5653153 -0.263984E-05  0.112E-02    3.68       2.0  T
   5    -44.5653153 -0.481223E-07  0.376E-03    3.68       5.8  T
   6    -44.5653154 -0.107805E-06  0.162E-03    3.68      13.5  T
   7    -44.5653154 -0.419496E-08  0.450E-04    3.68      48.5  T
   8    -44.5653154 -0.461547E-09  0.150E-04    3.68     145.1  T

   *** convergence criteria satisfied after 8 iterations ***

         #    Occupation            Energy/Eh            Energy/eV
      -------------------------------------------------------------
         1        2.0000           -0.7576294             -20.6161
       ...           ...                  ...                  ...
        30        2.0000           -0.4854813             -13.2106
        31        2.0000           -0.4628828             -12.5957
        32        2.0000           -0.4532060             -12.3324
        33        2.0000           -0.4489495             -12.2165
        34        2.0000           -0.4435714             -12.0702
        35        2.0000           -0.4392506             -11.9526
        36        2.0000           -0.4229796             -11.5099 (HOMO)
        37                         -0.2878473              -7.8327 (LUMO)
        38                         -0.0732191              -1.9924
        39                         -0.0408890              -1.1126
        40                         -0.0303427              -0.8257
[...]
     12      -0.005907   0.000527  -0.000007  -0.000201  -0.001216  -0.001101
     13      -0.068882   0.018365   0.005776  -0.003388  -0.006068  -0.001316
     14       0.022319  -0.006682  -0.001608  -0.001490   0.002080  -0.002421
     15      -0.000553   0.000160   0.000380   0.000149   0.000281  -0.040125
     16      -0.003306   0.000499  -0.000005   0.000294  -0.000117   0.027223
     17      -0.001765   0.000579  -0.000118   0.000135  -0.000089  -0.037879
     18       0.000514  -0.000182  -0.000099  -0.014526  -0.010970   0.000607
     19       0.002057  -0.001913  -0.000865  -0.050613  -0.068780  -0.000318
     20       0.001798   0.000510  -0.000239  -0.060185   0.023644   0.000439
     21      -0.000077   0.000170   0.000004  -0.002048   0.002239  -0.000348
     22       0.000389  -0.000199  -0.000041   0.000530  -0.001626   0.000581
     23      -0.000307   0.000143  -0.000043  -0.001464   0.001586  -0.000891
     24      -0.000476   0.000147   0.000025  -0.000066  -0.000075  -0.000459
     25      -0.000175   0.000095   0.000041  -0.000288  -0.000060   0.000061
     26      -0.000037  -0.000024   0.000080   0.000038  -0.000214   0.001886
     27       0.000364  -0.000110   0.000037   0.000050   0.000015   0.000898
     28       0.000261  -0.000102  -0.000071   0.000104   0.000144  -0.000977
     29       0.000340  -0.000055  -0.000079   0.000065  -0.000004  -0.001871
     30       0.000119  -0.000037  -0.000004   0.000111  -0.000044   0.000155
     31       0.000026  -0.000025  -0.000014   0.000034   0.000059   0.000049
     32       0.000013   0.000008  -0.000033  -0.000003   0.000074  -0.000228
     33       0.000457  -0.000146  -0.000055   0.000102   0.000074   0.000062
     34      -0.000102  -0.000017  -0.000040   0.000035   0.000065   0.000033
     35      -0.000026   0.000009  -0.000032   0.000115  -0.000024  -0.001027
     36       0.000873   0.022810  -0.058029  -0.000135   0.000113  -0.000650
     37       0.007078   0.171568  -0.468871   0.002677  -0.000534  -0.001642
     38       0.013639   0.296441  -0.807866   0.004997  -0.000989  -0.003301
     39      -0.020993  -0.082131  -0.031329  -0.000059   0.000129  -0.000480
     40      -0.225626  -0.883792  -0.327028  -0.002412   0.020113  -0.001898
     41       0.049718   0.198642   0.074719  -0.000320  -0.004373   0.000854
     42       0.001542   0.005847  -0.011397   0.003516  -0.002635   0.118453
     43       0.001646   0.015528  -0.006632   0.001845  -0.002426   0.072728
     44       0.000176  -0.003063  -0.006261   0.000437   0.000239  -0.011867
     45       0.076734  -0.018448  -0.005496   0.000901   0.004228   0.001734
     46       0.928109  -0.209147  -0.061005   0.019750   0.052909   0.003589
     47      -0.264136   0.059319   0.018184  -0.004816  -0.014173   0.000024
     48       0.002672  -0.001584  -0.002630  -0.000336  -0.002510   0.644399
     49       0.001870   0.000882   0.000093  -0.000244   0.000117  -0.411723
     50      -0.008689   0.000126  -0.000498  -0.000192  -0.001833   0.625908
     51      -0.009279   0.002705   0.001009   0.011145   0.133095  -0.000424
     52      -0.051960   0.031068   0.009836   0.076377   0.951136   0.002931
     53       0.015160  -0.007750  -0.002662  -0.050882  -0.233396  -0.001027
     54      -0.003475  -0.000381   0.001852   0.194539  -0.028021  -0.001561
     55      -0.006921  -0.001940   0.002539   0.541028  -0.089207  -0.000323
     56      -0.013388  -0.002094   0.003954   0.808709  -0.074004  -0.000063
     57      -0.000002  -0.000016   0.000056  -0.000164  -0.000029   0.002037
     58      -0.000241   0.000153   0.000079  -0.000278  -0.000250  -0.000566
     59      -0.000135   0.000041   0.000232   0.000565  -0.001003  -0.003015
     60      -0.000421   0.000389   0.000240  -0.000245  -0.000503  -0.001825
     61       0.001042  -0.000308   0.000162   0.000519  -0.000153  -0.003002
     62       0.000273  -0.000116   0.000058  -0.000718   0.000772   0.007501
                 60         61         62    
      0       0.000318  -0.000024  -0.000035
      1      -0.000528  -0.000019  -0.000030
      2      -0.001203  -0.000003   0.000002
      3       0.000838   0.000050   0.000087
      4       0.001407   0.000022   0.000039
      5       0.001444  -0.000027  -0.000037
      6      -0.001200  -0.000014  -0.000008
      7      -0.002771  -0.000015  -0.000005
      8      -0.002831   0.000051   0.000027
      9      -0.052497  -0.000010  -0.000051
     10      -0.030917  -0.000011  -0.000019
     11       0.007765  -0.000021  -0.000003
     12       0.000096   0.000042   0.000043
     13       0.000066  -0.000039  -0.000079
     14       0.000617   0.000002  -0.000009
     15       0.005701  -0.000111  -0.000319
     16      -0.003788   0.000091   0.000228
     17       0.005442  -0.000093  -0.000279
     18      -0.000180   0.000174   0.000173
     19       0.000026  -0.000100  -0.000172
     20       0.000260   0.000159   0.000258
     21       0.000080  -0.000234  -0.000087
     22      -0.000105   0.000100   0.000392
     23       0.000160  -0.000173  -0.000362
     24       0.000025   0.000194  -0.000151
     25       0.000016  -0.000026  -0.000290
     26      -0.000321  -0.000428   0.000135
     27      -0.000115  -0.000302  -0.000118
     28       0.000127   0.000092   0.000204
     29       0.000307   0.000456   0.000312
     30      -0.000000   0.028829   0.002551
     31      -0.000010  -0.002254   0.000024
     32       0.000057  -0.055135  -0.004008
     33       0.000036   0.001497  -0.022829
     34       0.000017   0.002781  -0.038605
     35       0.000122  -0.003513   0.043348
     36      -0.001462  -0.000012  -0.000029
     37      -0.008381   0.000043   0.000033
     38      -0.012820   0.000163   0.000094
     39      -0.002536   0.000061  -0.000042
     40       0.006859   0.000049   0.000183
     41       0.000651   0.000018  -0.000054
     42       0.837964   0.000088   0.000720
     43       0.517571   0.000102   0.000411
     44      -0.079458   0.000077  -0.000052
     45      -0.000336  -0.000052   0.000853
     46      -0.000603   0.000091  -0.000213
     47      -0.000815  -0.000162   0.000025
     48      -0.090785   0.001816   0.005705
     49       0.058134  -0.001410  -0.004097
     50      -0.088385   0.001276   0.004405
     51       0.000578  -0.000224   0.000247
     52       0.002458   0.000738   0.000692
     53      -0.000540  -0.000309  -0.000188
     54      -0.000713  -0.000260  -0.000259
     55      -0.002644  -0.000259  -0.000445
     56      -0.003179  -0.000458  -0.000593
     57      -0.000337  -0.453861  -0.035365
     58       0.000098   0.036275   0.002450
     59       0.000183   0.884927   0.066543
     60      -0.000136  -0.027040   0.360822
     61      -0.000047  -0.045642   0.612564
     62      -0.000478   0.053635  -0.696350


-----------
IR SPECTRUM
-----------

 Mode   freq       eps      Int      T**2         TX        TY        TZ
       cm**-1   L/(mol*cm) km/mol    a.u.
----------------------------------------------------------------------------
  6:     33.12   0.000567    2.87  0.005343  (-0.059903 -0.027525  0.031581)
  7:     54.26   0.000124    0.63  0.000715  (-0.003632  0.021338 -0.015687)
  8:     61.47   0.000757    3.82  0.003842  (-0.015935  0.017796 -0.057196)
  9:     95.13   0.000434    2.19  0.001424  (-0.014204 -0.016717 -0.030699)
 10:    116.64   0.000665    3.36  0.001779  ( 0.015181 -0.025406 -0.030056)
 11:    141.87   0.003519   17.78  0.007740  ( 0.072634 -0.033516  0.036623)
 12:    197.90   0.001039    5.25  0.001639  (-0.038523 -0.010534 -0.006629)
 13:    210.32   0.003604   18.21  0.005347  (-0.025326  0.066451 -0.017033)
 14:    242.60   0.021303  107.66  0.027403  ( 0.157958  0.012129  0.048010)
 15:    263.81   0.000901    4.55  0.001066  (-0.026513 -0.011332  0.015319)
 16:    293.06   0.017443   88.15  0.018574  (-0.006498  0.130030  0.040304)
 17:    310.25   0.003564   18.01  0.003584  ( 0.014135 -0.036308  0.045456)
 18:    328.98   0.002398   12.12  0.002275  (-0.047040 -0.007385  0.002764)
 19:    375.24   0.022482  113.61  0.018697  ( 0.075116 -0.086734  0.074375)
 20:    377.26   0.003897   19.69  0.003223  ( 0.046069  0.015275 -0.029453)
 21:    408.67   0.008500   42.96  0.006491  ( 0.025292 -0.076492 -0.000228)
 22:    420.03   0.008407   42.48  0.006246  (-0.039980  0.036810 -0.057381)
 23:    424.11   0.008082   40.84  0.005947  (-0.003426  0.076365 -0.010183)
 24:    438.05   0.026701  134.94  0.019022  (-0.065528  0.121161 -0.006900)
 25:    475.32   0.008080   40.83  0.005304  (-0.059426  0.023753 -0.034768)
 26:    581.11   0.012230   61.81  0.006568  ( 0.078548 -0.013051 -0.015089)
 27:    593.00   0.023162  117.05  0.012189  ( 0.074018  0.052143 -0.063177)
 28:    729.60   0.008470   42.80  0.003623  ( 0.024226  0.038042 -0.039857)
 29:    748.02   0.005406   27.32  0.002255  ( 0.047246 -0.000638 -0.004781)
 30:    806.69   0.065174  329.36  0.025212  ( 0.005893  0.157878 -0.015876)
 31:    844.03   0.009502   48.02  0.003513  ( 0.045188  0.032307 -0.020672)
 32:    853.53   0.007882   39.83  0.002882  ( 0.022671  0.045191  0.018046)
 33:    886.75   0.034946  176.60  0.012298  ( 0.094048 -0.048246 -0.033545)
 34:    914.35   0.047784  241.48  0.016308  (-0.120193 -0.002871 -0.043054)
 35:    916.33   0.071579  361.73  0.024377  (-0.110634 -0.019431 -0.108440)
 36:    948.38   0.009143   46.20  0.003008  (-0.009358 -0.003929  0.053901)
 37:   1028.74   0.006335   32.01  0.001922  (-0.014762 -0.040771 -0.006443)
 38:   1044.62   0.005800   29.31  0.001733  (-0.031999  0.023236 -0.012993)
 39:   1105.30   0.021669  109.51  0.006118  (-0.045383  0.062368 -0.012984)
 40:   1129.36   0.027549  139.22  0.007612  ( 0.037542  0.027839  0.073675)
 41:   1142.06   0.012307   62.19  0.003363  ( 0.053723 -0.011632  0.018473)
 42:   1163.95   0.005945   30.04  0.001594  (-0.029607  0.010175  0.024773)
 43:   1205.58   0.001023    5.17  0.000265  ( 0.012440  0.010444 -0.000991)
 44:   1211.65   0.003473   17.55  0.000895  (-0.022670  0.004589  0.018963)
 45:   1257.50   0.097805  494.27  0.024271  (-0.049017  0.062305  0.134115)
 46:   1277.41   0.017857   90.24  0.004362  ( 0.002932 -0.051444 -0.041319)
 47:   1283.62   0.008017   40.51  0.001949  ( 0.021487  0.009419 -0.037397)
 48:   1305.08   0.016715   84.47  0.003997  ( 0.009654 -0.007304 -0.062050)
 49:   1325.70   0.002212   11.18  0.000521  (-0.017944 -0.005864 -0.012816)
 50:   1333.35   0.003301   16.68  0.000773  ( 0.002908  0.027641  0.000143)
 51:   1340.07   0.010286   51.98  0.002395  ( 0.026212 -0.036179  0.019985)
 52:   1446.55   0.002015   10.18  0.000435  ( 0.008290  0.003073 -0.018880)
 53:   1768.65   0.060166  304.05  0.010616  ( 0.092318  0.045653  0.002994)
 54:   2855.00   0.008168   41.28  0.000893  (-0.000380 -0.029646  0.003716)
 55:   2877.77   0.004780   24.16  0.000518  (-0.004565  0.020686 -0.008344)
 56:   2885.23   0.011716   59.21  0.001267  ( 0.006560  0.025433  0.024026)
 57:   2953.43   0.005557   28.08  0.000587  (-0.012049 -0.003288 -0.020764)
 58:   2961.81   0.004897   24.75  0.000516  ( 0.000413 -0.018264  0.013500)
 59:   3331.98   0.067952  343.40  0.006364  ( 0.069114 -0.035548  0.017994)
 60:   3337.68   0.016980   85.81  0.001588  ( 0.027150  0.016125 -0.024300)
 61:   3600.29   0.016011   80.91  0.001388  (-0.016918 -0.000206  0.033190)
 62:   3625.32   0.012483   63.08  0.001075  ( 0.011384  0.027422 -0.013891)

* The epsilon (eps) is given for a Dirac delta lineshape.
** The dipole moment derivative (T) already includes vibrational overlap.

The first frequency considered to be a vibration is 6
The total number of vibrations considered is 57


--------------------------
THERMOCHEMISTRY AT 298.15K
--------------------------

Temperature         ... 298.15 K
Pressure            ... 1.00 atm
Total Mass          ... 200.08 AMU

Throughout the following assumptions are being made:
  (1) The electronic state is orbitally nondegenerate
  (2) There are no thermally accessible electronically excited states
  (3) Hindered rotations indicated by low frequency modes are not
      treated as such but are treated as vibrations and this may
      cause some error
  (4) All equations used are the standard statistical mechanics
      equations for an ideal gas
  (5) All vibrations are strictly harmonic

freq.      33.12  E(vib)   ...       0.55 
freq.      54.26  E(vib)   ...       0.52 
freq.      61.47  E(vib)   ...       0.51 
freq.      95.13  E(vib)   ...       0.47 
freq.     116.64  E(vib)   ...       0.44 
freq.     141.87  E(vib)   ...       0.41 
freq.     197.90  E(vib)   ...       0.35 
freq.     210.32  E(vib)   ...       0.34 
freq.     242.60  E(vib)   ...       0.31 
freq.     263.81  E(vib)   ...       0.29 
freq.     293.06  E(vib)   ...       0.27 
freq.     310.25  E(vib)   ...       0.26 
freq.     328.98  E(vib)   ...       0.24 
freq.     375.24  E(vib)   ...       0.21 
freq.     377.26  E(vib)   ...       0.21 
freq.     408.67  E(vib)   ...       0.19 
freq.     420.03  E(vib)   ...       0.18 
freq.     424.11  E(vib)   ...       0.18 
freq.     438.05  E(vib)   ...       0.17 
freq.     475.32  E(vib)   ...       0.15 
freq.     581.11  E(vib)   ...       0.11 
freq.     593.00  E(vib)   ...       0.10 
freq.     729.60  E(vib)   ...       0.06 
freq.     748.02  E(vib)   ...       0.06 
freq.     806.69  E(vib)   ...       0.05 
freq.     844.03  E(vib)   ...       0.04 
freq.     853.53  E(vib)   ...       0.04 
freq.     886.75  E(vib)   ...       0.04 
freq.     914.35  E(vib)   ...       0.03 
freq.     916.33  E(vib)   ...       0.03 
freq.     948.38  E(vib)   ...       0.03 
freq.    1028.74  E(vib)   ...       0.02 
freq.    1044.62  E(vib)   ...       0.02 
freq.    1105.30  E(vib)   ...       0.02 
freq.    1129.36  E(vib)   ...       0.01 
freq.    1142.06  E(vib)   ...       0.01 
freq.    1163.95  E(vib)   ...       0.01 
freq.    1205.58  E(vib)   ...       0.01 
freq.    1211.65  E(vib)   ...       0.01 
freq.    1257.50  E(vib)   ...       0.01 
freq.    1277.41  E(vib)   ...       0.01 
freq.    1283.62  E(vib)   ...       0.01 
freq.    1305.08  E(vib)   ...       0.01 
freq.    1325.70  E(vib)   ...       0.01 
freq.    1333.35  E(vib)   ...       0.01 
freq.    1340.07  E(vib)   ...       0.01 
freq.    1446.55  E(vib)   ...       0.00 
freq.    1768.65  E(vib)   ...       0.00 
freq.    2855.00  E(vib)   ...       0.00 
freq.    2877.77  E(vib)   ...       0.00 
freq.    2885.23  E(vib)   ...       0.00 
freq.    2953.43  E(vib)   ...       0.00 
freq.    2961.81  E(vib)   ...       0.00 
freq.    3331.98  E(vib)   ...       0.00 
freq.    3337.68  E(vib)   ...       0.00 
freq.    3600.29  E(vib)   ...       0.00 
freq.    3625.32  E(vib)   ...       0.00 

------------
INNER ENERGY
------------

The inner energy is: U= E(el) + E(ZPE) + E(vib) + E(rot) + E(trans)
    E(el)   - is the total energy from the electronic structure calculation
              = E(kin-el) + E(nuc-el) + E(el-el) + E(nuc-nuc)
    E(ZPE)  - the the zero temperature vibrational energy from the frequency calculation
    E(vib)  - the the finite temperature correction to E(ZPE) due to population
              of excited vibrational states
    E(rot)  - is the rotational thermal energy
    E(trans)- is the translational thermal energy

Summary of contributions to the inner energy U:
Electronic energy                ...    -44.26216569 Eh
Zero point energy                ...      0.14554671 Eh      91.33 kcal/mol
Thermal vibrational correction   ...      0.01117996 Eh       7.02 kcal/mol
Thermal rotational correction    ...      0.00141627 Eh       0.89 kcal/mol
Thermal translational correction ...      0.00141627 Eh       0.89 kcal/mol
-----------------------------------------------------------------------
Total thermal energy                    -44.10260648 Eh


Summary of corrections to the electronic energy:
(perhaps to be used in another calculation)
Total thermal correction                  0.01401250 Eh       8.79 kcal/mol
Non-thermal (ZPE) correction              0.14554671 Eh      91.33 kcal/mol
-----------------------------------------------------------------------
Total correction                          0.15955921 Eh     100.12 kcal/mol


--------
ENTHALPY
--------

The enthalpy is H = U + kB*T
                kB is Boltzmann's constant
Total free energy                 ...    -44.10260648 Eh 
Thermal Enthalpy correction       ...      0.00094421 Eh       0.59 kcal/mol
-----------------------------------------------------------------------
Total Enthalpy                    ...    -44.10166227 Eh


Note: Only C1 symmetry has been detected, increase convergence thresholds 
      if your molecule has a higher symmetry. Symmetry factor of 1.0 is   
      used for the rotational entropy correction. 
 

Note: Rotational entropy computed according to Herzberg 
Infrared and Raman Spectra, Chapter V,1, Van Nostrand Reinhold, 1945 
Point Group:  C1, Symmetry Number:   1  
Rotational constants in cm-1:     0.059050     0.014062     0.013638 

Vibrational entropy computed according to the QRRHO of S. Grimme
Chem.Eur.J. 2012 18 9955


-------
ENTROPY
-------

The entropy contributions are T*S = T*(S(el)+S(vib)+S(rot)+S(trans))
     S(el)   - electronic entropy
     S(vib)  - vibrational entropy
     S(rot)  - rotational entropy
     S(trans)- translational entropy
The entropies will be listed as multiplied by the temperature to get
units of energy

Electronic entropy                ...      0.00000000 Eh      0.00 kcal/mol
Vibrational entropy               ...      0.01959116 Eh     12.29 kcal/mol
Rotational entropy                ...      0.01488722 Eh      9.34 kcal/mol
Translational entropy             ...      0.01985351 Eh     12.46 kcal/mol
-----------------------------------------------------------------------
Final entropy term                ...      0.05433190 Eh     34.09 kcal/mol

In case the symmetry of your molecule has not been determined correctly
or in case you have a reason to use a different symmetry number we print 
out the resulting rotational entropy values for sn=1,12 :
 --------------------------------------------------------
|  sn= 1 | S(rot)=       0.01488722 Eh      9.34 kcal/mol|
|  sn= 2 | S(rot)=       0.01423277 Eh      8.93 kcal/mol|
|  sn= 3 | S(rot)=       0.01384993 Eh      8.69 kcal/mol|
|  sn= 4 | S(rot)=       0.01357831 Eh      8.52 kcal/mol|
|  sn= 5 | S(rot)=       0.01336762 Eh      8.39 kcal/mol|
|  sn= 6 | S(rot)=       0.01319548 Eh      8.28 kcal/mol|
|  sn= 7 | S(rot)=       0.01304993 Eh      8.19 kcal/mol|
|  sn= 8 | S(rot)=       0.01292385 Eh      8.11 kcal/mol|
|  sn= 9 | S(rot)=       0.01281264 Eh      8.04 kcal/mol|
|  sn=10 | S(rot)=       0.01271316 Eh      7.98 kcal/mol|
|  sn=11 | S(rot)=       0.01262317 Eh      7.92 kcal/mol|
|  sn=12 | S(rot)=       0.01254102 Eh      7.87 kcal/mol|
 --------------------------------------------------------


-------------------
GIBBS FREE ENERGY
-------------------

The Gibbs free energy is G = H - T*S

Total enthalpy                    ...    -44.10166227 Eh 
Total entropy correction          ...     -0.05433190 Eh    -34.09 kcal/mol
-----------------------------------------------------------------------
Final Gibbs free energy         ...    -44.15599417 Eh

For completeness - the Gibbs free energy minus the electronic energy
G-E(el)                           ...      0.10617153 Eh     66.62 kcal/mol



Timings for individual modules:

Sum of individual times         ...      308.844 sec (=   5.147 min)
Geometry relaxation             ...        1.940 sec (=   0.032 min)   0.6 %
Numerical frequency calculation ...      305.185 sec (=   5.086 min)  98.8 %
XTB module                      ...        1.718 sec (=   0.029 min)   0.6 %
                             ****ORCA TERMINATED NORMALLY****
TOTAL RUN TIME: 0 days 0 hours 5 minutes 10 seconds 514 msec
