
                                 *****************
                                 * O   R   C   A *
                                 *****************

                                            #,                                       
                                            ###                                      
                                            ####                                     
                                            #####                                    
                                            ######                                   
                                           ########,                                 
                                     ,,################,,,,,                         
                               ,,#################################,,                 
                          ,,##########################################,,             
                       ,#########################################, ''#####,          
                    ,#############################################,,   '####,        
                  ,##################################################,,,,####,       
                ,###########''''           ''''###############################       
              ,#####''   ,,,,##########,,,,          '''####'''          '####       
            ,##' ,,,,###########################,,,                        '##       
           ' ,,###''''                  '''############,,,                           
         ,,##''                                '''############,,,,        ,,,,,,###''
      ,#''                                            '''#######################'''  
     '                                                          ''''####''''         
             ,#######,   #######,   ,#######,      ##                                
            ,#'     '#,  ##    ##  ,#'     '#,    #''#        ######   ,####,        
            ##       ##  ##   ,#'  ##            #'  '#       #        #'  '#        
            ##       ##  #######   ##           ,######,      #####,   #    #        
            '#,     ,#'  ##    ##  '#,     ,#' ,#      #,         ##   #,  ,#        
             '#######'   ##     ##  '#######'  #'      '#     #####' # '####'        



                  #######################################################
                  #                        -***-                        #
                  #          Department of theory and spectroscopy      #
                  #    Directorship and core code : Frank Neese         #
                  #        Max Planck Institute fuer Kohlenforschung    #
                  #                Kaiser Wilhelm Platz 1               #
                  #                 D-45470 Muelheim/Ruhr               #
                  #                      Germany                        #
                  #                                                     #
                  #                  All rights reserved                #
                  #                        -***-                        #
                  #######################################################


                         Program Version 5.0.3 -  RELEASE  -


 With contributions from (in alphabetic order):
   Daniel Aravena         : Magnetic Suceptibility
   Michael Atanasov       : Ab Initio Ligand Field Theory (pilot matlab implementation)
   Alexander A. Auer      : GIAO ZORA, VPT2 properties, NMR spectrum
   Ute Becker             : Parallelization
   Giovanni Bistoni       : ED, misc. LED, open-shell LED, HFLD
   Martin Brehm           : Molecular dynamics
   Dmytro Bykov           : SCF Hessian
   Vijay G. Chilkuri      : MRCI spin determinant printing, contributions to CSF-ICE
   Dipayan Datta          : RHF DLPNO-CCSD density
   Achintya Kumar Dutta   : EOM-CC, STEOM-CC
   Dmitry Ganyushin       : Spin-Orbit,Spin-Spin,Magnetic field MRCI
   Miquel Garcia          : C-PCM and meta-GGA Hessian, CC/C-PCM, Gaussian charge scheme
   Yang Guo               : DLPNO-NEVPT2, F12-NEVPT2, CIM, IAO-localization
   Andreas Hansen         : Spin unrestricted coupled pair/coupled cluster methods
   Benjamin Helmich-Paris : MC-RPA, TRAH-SCF, COSX integrals
   Lee Huntington         : MR-EOM, pCC
   Robert Izsak           : Overlap fitted RIJCOSX, COSX-SCS-MP3, EOM
   Marcus Kettner         : VPT2
   Christian Kollmar      : KDIIS, OOCD, Brueckner-CCSD(T), CCSD density, CASPT2, CASPT2-K
   Simone Kossmann        : Meta GGA functionals, TD-DFT gradient, OOMP2, MP2 Hessian
   Martin Krupicka        : Initial AUTO-CI
   Lucas Lang             : DCDCAS
   Marvin Lechner         : AUTO-CI (C++ implementation), FIC-MRCC
   Dagmar Lenk            : GEPOL surface, SMD
   Dimitrios Liakos       : Extrapolation schemes; Compound Job, initial MDCI parallelization
   Dimitrios Manganas     : Further ROCIS development; embedding schemes
   Dimitrios Pantazis     : SARC Basis sets
   Anastasios Papadopoulos: AUTO-CI, single reference methods and gradients
   Taras Petrenko         : DFT Hessian,TD-DFT gradient, ASA, ECA, R-Raman, ABS, FL, XAS/XES, NRVS
   Peter Pinski           : DLPNO-MP2, DLPNO-MP2 Gradient
   Christoph Reimann      : Effective Core Potentials
   Marius Retegan         : Local ZFS, SOC
   Christoph Riplinger    : Optimizer, TS searches, QM/MM, DLPNO-CCSD(T), (RO)-DLPNO pert. Triples
   Tobias Risthaus        : Range-separated hybrids, TD-DFT gradient, RPA, STAB
   Michael Roemelt        : Original ROCIS implementation
   Masaaki Saitow         : Open-shell DLPNO-CCSD energy and density
   Barbara Sandhoefer     : DKH picture change effects
   Avijit Sen             : IP-ROCIS
   Kantharuban Sivalingam : CASSCF convergence, NEVPT2, FIC-MRCI
   Bernardo de Souza      : ESD, SOC TD-DFT
   Georgi Stoychev        : AutoAux, RI-MP2 NMR, DLPNO-MP2 response
   Willem Van den Heuvel  : Paramagnetic NMR
   Boris Wezisla          : Elementary symmetry handling
   Frank Wennmohs         : Technical directorship


 We gratefully acknowledge several colleagues who have allowed us to
 interface, adapt or use parts of their codes:
   Stefan Grimme, W. Hujo, H. Kruse, P. Pracht,  : VdW corrections, initial TS optimization,
                  C. Bannwarth, S. Ehlert          DFT functionals, gCP, sTDA/sTD-DF
   Ed Valeev, F. Pavosevic, A. Kumar             : LibInt (2-el integral package), F12 methods
   Garnet Chan, S. Sharma, J. Yang, R. Olivares  : DMRG
   Ulf Ekstrom                                   : XCFun DFT Library
   Mihaly Kallay                                 : mrcc  (arbitrary order and MRCC methods)
   Jiri Pittner, Ondrej Demel                    : Mk-CCSD
   Frank Weinhold                                : gennbo (NPA and NBO analysis)
   Christopher J. Cramer and Donald G. Truhlar   : smd solvation model
   Lars Goerigk                                  : TD-DFT with DH, B97 family of functionals
   V. Asgeirsson, H. Jonsson                     : NEB implementation
   FAccTs GmbH                                   : IRC, NEB, NEB-TS, DLPNO-Multilevel, CI-OPT
                                                   MM, QMMM, 2- and 3-layer-ONIOM, Crystal-QMMM,
                                                   LR-CPCM, SF, NACMEs, symmetry and pop. for TD-DFT,
                                                   nearIR, NL-DFT gradient (VV10), updates on ESD,
                                                   ML-optimized integration grids
   S Lehtola, MJT Oliveira, MAL Marques          : LibXC Library
   Liviu Ungur et al                             : ANISO software


 Your calculation uses the libint2 library for the computation of 2-el integrals
 For citations please refer to: http://libint.valeyev.net

 Your ORCA version has been built with support for libXC version: 5.1.0
 For citations please refer to: https://tddft.org/programs/libxc/

 This ORCA versions uses:
   CBLAS   interface :  Fast vector & matrix operations
   LAPACKE interface :  Fast linear algebra routines
   SCALAPACK package :  Parallel linear algebra routines
   Shared memory     :  Shared parallel matrices
   BLAS/LAPACK       :  OpenBLAS 0.3.15  USE64BITINT DYNAMIC_ARCH NO_AFFINITY Haswell SINGLE_THREADED
        Core in use  :  Haswell
   Copyright (c) 2011-2014, The OpenBLAS Project


Your calculation utilizes the semiempirical GFN2-xTB method
Please cite in your paper:
C. Bannwarth, Ehlert S., S. Grimme,  J. Chem. Theory Comput., 15, (2019), 1652.
   

================================================================================

================================================================================
                                        WARNINGS
                       Please study these warnings very carefully!
================================================================================


WARNING: Geometry Optimization
  ===> : Switching off AutoStart
         For restart on a previous wavefunction, please use MOREAD

WARNING: Found dipole moment calculation with XTB calculation
  ===> : Switching off dipole moment calculation


WARNING: TRAH-SCF for XTB is not implemented!
  ===> : Turning TRAH off!

================================================================================
                                       INPUT FILE
================================================================================
NAME = /tmp/C00345.inp
|  1> ! XTB2 opt numfreq
|  2> * xyz 0 1
|  3> O 3.576215 -.849640 .028049
|  4> C 3.340833 .103695 .714688
|  5> O 4.269142 .699046 1.474806
|  6> C 2.001984 .813679 .814179
|  7> O 1.839590 1.498999 2.033881
|  8> C .812620 -.167791 .665570
|  9> O -.346800 .468977 1.153037
| 10> C .613739 -.550117 -.813389
| 11> O .404143 .573347 -1.625812
| 12> C -.472067 -1.632539 -1.028090
| 13> O -.507560 -1.957832 -2.392289
| 14> C -1.881586 -1.263497 -.525321
| 15> O -2.299545 -.020831 -1.051262
| 16> P -2.843943 1.149170 -.065237
| 17> O -3.191316 .684820 1.279332
| 18> O -4.000164 1.778059 -.933407
| 19> O -1.823561 2.347608 -.220731
| 20> H 5.124744 .251489 1.378186
| 21> H 1.952313 1.521157 -.034999
| 22> H 2.697416 1.846154 2.307345
| 23> H 1.017730 -1.079281 1.243289
| 24> H -.200235 .664263 2.106661
| 25> H 1.561398 -.979337 -1.161153
| 26> H -.531189 .884356 -1.509208
| 27> H -.166742 -2.544174 -.503443
| 28> H -.563573 -1.128998 -2.888991
| 29> H -1.914577 -1.229324 .566069
| 30> H -2.571372 -2.036087 -.881049
| 31> H -4.859146 1.416099 -.624082
| 32> H -.666801 1.782087 .286516
| 33> *
| 34> 
| 35>                          ****END OF INPUT****
================================================================================

                       *****************************
                       * Geometry Optimization Run *
                       *****************************

Geometry optimization settings:
Update method            Update   .... BFGS
Choice of coordinates    CoordSys .... Z-matrix Internals
Initial Hessian          InHess   .... Almoef's Model

Convergence Tolerances:
Energy Change            TolE     ....  5.0000e-06 Eh
Max. Gradient            TolMAXG  ....  3.0000e-04 Eh/bohr
RMS Gradient             TolRMSG  ....  1.0000e-04 Eh/bohr
Max. Displacement        TolMAXD  ....  4.0000e-03 bohr
RMS Displacement         TolRMSD  ....  2.0000e-03 bohr
Strict Convergence                ....  False
------------------------------------------------------------------------------
                        ORCA OPTIMIZATION COORDINATE SETUP
------------------------------------------------------------------------------

The optimization will be done in new redundant internal coordinates
Making redundant internal coordinates   ...  (new redundants) done
Evaluating the initial hessian          ...  (Almloef) done
Evaluating the coordinates              ...  done
Calculating the B-matrix                .... done
Calculating the G-matrix                .... done
Diagonalizing the G-matrix              .... done
Small eigenvalue found = 1.417e-02
Small eigenvalue found = 1.904e-02
The first mode is                       ....   70
The number of degrees of freedom        ....   84

    -----------------------------------------------------------------
                    Redundant Internal Coordinates


    -----------------------------------------------------------------
         Definition                    Initial Value    Approx d2E/dq
    -----------------------------------------------------------------
      1. B(C   1,O   0)                  1.1982         1.132015   
      2. B(O   2,C   1)                  1.3394         0.673926   
      3. B(C   3,C   1)                  1.5187         0.389389   
      4. B(O   4,C   3)                  1.4084         0.522941   
      5. B(C   5,C   3)                  1.5492         0.348160   
      6. B(O   6,C   5)                  1.4097         0.520463   
      7. B(C   7,C   5)                  1.5405         0.359479   
      8. B(O   8,C   7)                  1.4022         0.535093   
      9. B(C   9,C   7)                  1.5481         0.349503   
     10. B(O  10,C   9)                  1.4029         0.533706   
     11. B(C  11,C   9)                  1.5413         0.358339   
     12. B(O  12,C  11)                  1.4126         0.514957   
     13. B(P  13,O  12)                  1.6240         0.796101   
     14. B(O  14,P  13)                  1.4643         1.431658   
     15. B(O  15,P  13)                  1.5767         0.947237   
     16. B(O  16,P  13)                  1.5816         0.930265   
     17. B(H  17,O   2)                  0.9704         0.500445   
     18. B(H  18,C   3)                  1.1064         0.339060   
     19. B(H  19,O   4)                  0.9650         0.510551   
     20. B(H  20,C   5)                  1.0985         0.349064   
     21. B(H  21,O   6)                  0.9844         0.475401   
     22. B(H  22,C   7)                  1.0969         0.351065   
     23. B(H  23,O   8)                  0.9926         0.461344   
     24. B(H  24,C   9)                  1.0952         0.353231   
     25. B(H  25,O  10)                  0.9679         0.505097   
     26. B(H  26,C  11)                  1.0924         0.356909   
     27. B(H  27,C  11)                  1.0951         0.353417   
     28. B(H  28,O  15)                  0.9821         0.479387   
     29. B(H  29,O  16)                  1.3839         0.109558   
     30. B(H  29,O   6)                  1.6055         0.048548   
     31. A(O   0,C   1,C   3)          125.6383         0.441996   
     32. A(O   2,C   1,C   3)          111.4706         0.402899   
     33. A(O   0,C   1,O   2)          122.8683         0.485371   
     34. A(C   1,O   2,H  17)          110.4614         0.373004   
     35. A(O   4,C   3,H  18)          110.3865         0.337435   
     36. A(C   5,C   3,H  18)          107.2789         0.317462   
     37. A(C   1,C   3,O   4)          112.6964         0.385385   
     38. A(C   1,C   3,C   5)          111.9844         0.361557   
     39. A(O   4,C   3,C   5)          107.6271         0.377972   
     40. A(C   1,C   3,H  18)          106.7522         0.323323   
     41. A(C   3,O   4,H  19)          108.5401         0.358374   
     42. A(C   3,C   5,O   6)          108.1846         0.377661   
     43. A(O   6,C   5,H  20)          110.2743         0.338807   
     44. A(C   7,C   5,H  20)          108.8502         0.320641   
     45. A(C   3,C   5,H  20)          109.3838         0.318970   
     46. A(O   6,C   5,C   7)          109.7492         0.379759   
     47. A(C   3,C   5,C   7)          110.3927         0.356671   
     48. A(H  21,O   6,H  29)          112.9722         0.222401   
     49. A(C   5,O   6,H  29)          110.2878         0.246980   
     50. A(C   5,O   6,H  21)          107.5860         0.353775   
     51. A(O   8,C   7,C   9)          112.0247         0.379732   
     52. A(C   5,C   7,C   9)          113.4047         0.356904   
     53. A(C   5,C   7,O   8)          112.1298         0.381589   
     54. A(C   9,C   7,H  22)          106.7607         0.319469   
     55. A(O   8,C   7,H  22)          105.0085         0.340704   
     56. A(C   5,C   7,H  22)          106.8554         0.320941   
     57. A(C   7,O   8,H  23)          108.8959         0.353638   
     58. A(O  10,C   9,C  11)          110.4613         0.381207   
     59. A(C   7,C   9,C  11)          115.3878         0.356712   
     60. A(C   7,C   9,O  10)          108.3441         0.379561   
     61. A(C  11,C   9,H  24)          107.3358         0.321098   
     62. A(O  10,C   9,H  24)          106.2520         0.340907   
     63. A(C   7,C   9,H  24)          108.6637         0.319790   
     64. A(C   9,O  10,H  25)          107.5735         0.358963   
     65. A(O  12,C  11,H  27)          108.2587         0.338906   
     66. A(H  26,C  11,H  27)          109.1217         0.289581   
     67. A(C   9,C  11,H  27)          107.5261         0.321125   
     68. A(O  12,C  11,H  26)          109.6034         0.339463   
     69. A(C   9,C  11,H  26)          111.1610         0.321642   
     70. A(C   9,C  11,O  12)          111.0847         0.378852   
     71. A(C  11,O  12,P  13)          120.4561         0.463202   
     72. A(O  15,P  13,O  16)           96.7035         0.572478   
     73. A(O  14,P  13,O  16)          118.9209         0.619857   
     74. A(O  12,P  13,O  16)          105.6601         0.553826   
     75. A(O  14,P  13,O  15)          117.2658         0.622034   
     76. A(O  12,P  13,O  15)          101.4701         0.555732   
     77. A(O  12,P  13,O  14)          114.1147         0.601470   
     78. A(P  13,O  15,H  28)          108.7202         0.419077   
     79. A(P  13,O  16,H  29)          101.1618         0.324367   
     80. A(O   6,H  29,O  16)          134.3196         0.184695   
     81. D(H  17,O   2,C   1,C   3)   -178.1703         0.033774   
     82. D(H  17,O   2,C   1,O   0)      0.1842         0.033774   
     83. D(H  18,C   3,C   1,O   0)    -83.3448         0.011282   
     84. D(H  18,C   3,C   1,O   2)     94.9545         0.011282   
     85. D(O   4,C   3,C   1,O   2)    -26.3923         0.011282   
     86. D(O   4,C   3,C   1,O   0)    155.3084         0.011282   
     87. D(C   5,C   3,C   1,O   0)     33.7865         0.011282   
     88. D(C   5,C   3,C   1,O   2)   -147.9142         0.011282   
     89. D(H  19,O   4,C   3,H  18)    -84.6158         0.021691   
     90. D(H  19,O   4,C   3,C   5)    158.6044         0.021691   
     91. D(H  19,O   4,C   3,C   1)     34.6414         0.021691   
     92. D(O   6,C   5,C   3,H  18)    -80.2869         0.009774   
     93. D(O   6,C   5,C   3,O   4)     38.5046         0.009774   
     94. D(C   7,C   5,C   3,C   1)    -76.9980         0.009774   
     95. D(O   6,C   5,C   3,C   1)    162.8985         0.009774   
     96. D(H  20,C   5,C   3,H  18)    159.5660         0.009774   
     97. D(H  20,C   5,C   3,O   4)    -81.6425         0.009774   
     98. D(H  20,C   5,C   3,C   1)     42.7514         0.009774   
     99. D(C   7,C   5,C   3,H  18)     39.8166         0.009774   
    100. D(C   7,C   5,C   3,O   4)    158.6081         0.009774   
    101. D(H  29,O   6,C   5,H  20)   -178.6475         0.023312   
    102. D(H  29,O   6,C   5,C   7)    -58.7412         0.023312   
    103. D(H  29,O   6,C   5,C   3)     61.7646         0.023312   
    104. D(H  21,O   6,C   5,C   7)    177.6400         0.023312   
    105. D(H  21,O   6,C   5,C   3)    -61.8542         0.023312   
    106. D(H  21,O   6,C   5,H  20)     57.7338         0.023312   
    107. D(C   9,C   7,C   5,C   3)    174.5494         0.010370   
    108. D(O   8,C   7,C   5,O   6)     61.8154         0.010370   
    109. D(O   8,C   7,C   5,C   3)    -57.3428         0.010370   
    110. D(C   9,C   7,C   5,O   6)    -66.2924         0.010370   
    111. D(O   8,C   7,C   5,H  20)   -177.4137         0.010370   
    112. D(H  22,C   7,C   5,H  20)    -62.8746         0.010370   
    113. D(H  22,C   7,C   5,O   6)    176.3545         0.010370   
    114. D(H  22,C   7,C   5,C   3)     57.1963         0.010370   
    115. D(C   9,C   7,C   5,H  20)     54.4785         0.010370   
    116. D(H  23,O   8,C   7,H  22)    166.9159         0.022758   
    117. D(H  23,O   8,C   7,C   9)     51.4152         0.022758   
    118. D(H  23,O   8,C   7,C   5)    -77.4196         0.022758   
    119. D(H  24,C   9,C   7,O   8)    170.4543         0.009844   
    120. D(H  24,C   9,C   7,C   5)    -61.3836         0.009844   
    121. D(C  11,C   9,C   7,H  22)    176.5840         0.009844   
    122. D(C  11,C   9,C   7,O   8)    -68.9863         0.009844   
    123. D(C  11,C   9,C   7,C   5)     59.1758         0.009844   
    124. D(O  10,C   9,C   7,H  22)    -59.0126         0.009844   
    125. D(O  10,C   9,C   7,O   8)     55.4170         0.009844   
    126. D(H  24,C   9,C   7,H  22)     56.0247         0.009844   
    127. D(O  10,C   9,C   7,C   5)   -176.4209         0.009844   
    128. D(H  25,O  10,C   9,H  24)   -166.5765         0.022635   
    129. D(H  25,O  10,C   9,C  11)     77.3169         0.022635   
    130. D(H  25,O  10,C   9,C   7)    -49.9715         0.022635   
    131. D(H  27,C  11,C   9,O  10)     47.7530         0.010309   
    132. D(H  27,C  11,C   9,C   7)    171.0444         0.010309   
    133. D(H  26,C  11,C   9,H  24)     51.7044         0.010309   
    134. D(H  26,C  11,C   9,O  10)    167.1333         0.010309   
    135. D(H  26,C  11,C   9,C   7)    -69.5753         0.010309   
    136. D(O  12,C  11,C   9,H  24)    174.0367         0.010309   
    137. D(O  12,C  11,C   9,O  10)    -70.5344         0.010309   
    138. D(H  27,C  11,C   9,H  24)    -67.6759         0.010309   
    139. D(O  12,C  11,C   9,C   7)     52.7570         0.010309   
    140. D(P  13,O  12,C  11,H  27)    114.1967         0.021008   
    141. D(P  13,O  12,C  11,H  26)     -4.7286         0.021008   
    142. D(P  13,O  12,C  11,C   9)   -127.9595         0.021008   
    143. D(O  14,P  13,O  12,C  11)    -15.6188         0.011093   
    144. D(O  16,P  13,O  12,C  11)    116.8939         0.011093   
    145. D(O  15,P  13,O  12,C  11)   -142.7023         0.011093   
    146. D(H  28,O  15,P  13,O  16)   -152.8542         0.015431   
    147. D(H  28,O  15,P  13,O  14)    -25.3824         0.015431   
    148. D(H  28,O  15,P  13,O  12)     99.6176         0.015431   
    149. D(H  29,O  16,P  13,O  15)   -168.5996         0.014898   
    150. D(H  29,O  16,P  13,O  14)     65.1061         0.014898   
    151. D(H  29,O  16,P  13,O  12)    -64.6603         0.014898   
    152. D(O   6,H  29,O  16,P  13)    -14.5351         0.008659   
    153. D(O  16,H  29,O   6,H  21)   -101.0086         0.002861   
    154. D(O  16,H  29,O   6,C   5)    138.5558         0.002861   
    -----------------------------------------------------------------

Number of atoms                         .... 30
Number of degrees of freedom            .... 154

         *************************************************************
         *                GEOMETRY OPTIMIZATION CYCLE   1            *
         *************************************************************
---------------------------------
CARTESIAN COORDINATES (ANGSTROEM)
---------------------------------
  O     3.576215   -0.849640    0.028049
  C     3.340833    0.103695    0.714688
  O     4.269142    0.699046    1.474806
  C     2.001984    0.813679    0.814179
  O     1.839590    1.498999    2.033881
  C     0.812620   -0.167791    0.665570
  O    -0.346800    0.468977    1.153037
  C     0.613739   -0.550117   -0.813389
  O     0.404143    0.573347   -1.625812
  C    -0.472067   -1.632539   -1.028090
  O    -0.507560   -1.957832   -2.392289
  C    -1.881586   -1.263497   -0.525321
  O    -2.299545   -0.020831   -1.051262
  P    -2.843943    1.149170   -0.065237
  O    -3.191316    0.684820    1.279332
  O    -4.000164    1.778059   -0.933407
  O    -1.823561    2.347608   -0.220731
  H     5.124744    0.251489    1.378186
  H     1.952313    1.521157   -0.034999
  H     2.697416    1.846154    2.307345
  H     1.017730   -1.079281    1.243289
  H    -0.200235    0.664263    2.106661
  H     1.561398   -0.979337   -1.161153
  H    -0.531189    0.884356   -1.509208
  H    -0.166742   -2.544174   -0.503443
  H    -0.563573   -1.128998   -2.888991
  H    -1.914577   -1.229324    0.566069
  H    -2.571372   -2.036087   -0.881049
  H    -4.859146    1.416099   -0.624082
  H    -0.666801    1.782087    0.286516

----------------------------
CARTESIAN COORDINATES (A.U.)
----------------------------
  NO LB    ZA    FRAG    MASS        X           Y           Z
   0 O   8.0000    0    15.999    6.758067   -1.605587    0.053005
   1 C   6.0000    0    12.011    6.313259    0.195955    1.350565
   2 O   8.0000    0    15.999    8.067509    1.321005    2.786979
   3 C   6.0000    0    12.011    3.783201    1.537630    1.538575
   4 O   8.0000    0    15.999    3.476321    2.832698    3.843478
   5 C   6.0000    0    12.011    1.535629   -0.317079    1.257745
   6 O   8.0000    0    15.999   -0.655357    0.886238    2.178924
   7 C   6.0000    0    12.011    1.159799   -1.039570   -1.537082
   8 O   8.0000    0    15.999    0.763720    1.083469   -3.072339
   9 C   6.0000    0    12.011   -0.892077   -3.085052   -1.942809
  10 O   8.0000    0    15.999   -0.959149   -3.699766   -4.520771
  11 C   6.0000    0    12.011   -3.555682   -2.387663   -0.992713
  12 O   8.0000    0    15.999   -4.345510   -0.039365   -1.986597
  13 P  15.0000    0    30.974   -5.374273    2.171617   -0.123280
  14 O   8.0000    0    15.999   -6.030713    1.294122    2.417587
  15 O   8.0000    0    15.999   -7.559214    3.360045   -1.763884
  16 O   8.0000    0    15.999   -3.446031    4.436336   -0.417121
  17 H   1.0000    0     1.008    9.684363    0.475245    2.604394
  18 H   1.0000    0     1.008    3.689337    2.874570   -0.066139
  19 H   1.0000    0     1.008    5.097378    3.488725    4.360250
  20 H   1.0000    0     1.008    1.923231   -2.039546    2.349476
  21 H   1.0000    0     1.008   -0.378389    1.255275    3.981012
  22 H   1.0000    0     1.008    2.950615   -1.850679   -2.194261
  23 H   1.0000    0     1.008   -1.003802    1.671191   -2.851990
  24 H   1.0000    0     1.008   -0.315097   -4.807792   -0.951369
  25 H   1.0000    0     1.008   -1.064999   -2.133497   -5.459402
  26 H   1.0000    0     1.008   -3.618026   -2.323086    1.069715
  27 H   1.0000    0     1.008   -4.859189   -3.847647   -1.664941
  28 H   1.0000    0     1.008   -9.182455    2.676039   -1.179344
  29 H   1.0000    0     1.008   -1.260071    3.367656    0.541437

      -----------------------------------------------------------      
     |                   =====================                   |     
     |                           x T B                           |     
     |                   =====================                   |     
     |                         S. Grimme                         |     
     |          Mulliken Center for Theoretical Chemistry        |     
     |                    University of Bonn                     |     
      -----------------------------------------------------------      

   * xtb version 6.5.1 (579679a) compiled by 'ehlert@majestix' on 2022-07-11

   xtb is free software: you can redistribute it and/or modify it under
   the terms of the GNU Lesser General Public License as published by
   the Free Software Foundation, either version 3 of the License, or
   (at your option) any later version.
   
   xtb is distributed in the hope that it will be useful,
   but WITHOUT ANY WARRANTY; without even the implied warranty of
   MERCHANTABILITY or FITNESS FOR A PARTICULAR PURPOSE.  See the
   GNU Lesser General Public License for more details.
   
   Cite this work as:
   * C. Bannwarth, E. Caldeweyher, S. Ehlert, A. Hansen, P. Pracht,
     J. Seibert, S. Spicher, S. Grimme, WIREs Comput. Mol. Sci., 2020, 11,
     e01493. DOI: 10.1002/wcms.1493
   
   for GFN2-xTB:
   * C. Bannwarth, S. Ehlert and S. Grimme., J. Chem. Theory Comput., 2019,
     15, 1652-1671. DOI: 10.1021/acs.jctc.8b01176
   for GFN1-xTB:
   * S. Grimme, C. Bannwarth, P. Shushkov, J. Chem. Theory Comput., 2017,
     13, 1989-2009. DOI: 10.1021/acs.jctc.7b00118
   for GFN0-xTB:
   * P. Pracht, E. Caldeweyher, S. Ehlert, S. Grimme, ChemRxiv, 2019, preprint.
     DOI: 10.26434/chemrxiv.8326202.v1
   for GFN-FF:
   * S. Spicher and S. Grimme, Angew. Chem. Int. Ed., 2020, 59, 15665-15673.
     DOI: 10.1002/anie.202004239
   
   for ALPB and GBSA implicit solvation:
   * S. Ehlert, M. Stahn, S. Spicher, S. Grimme, J. Chem. Theory Comput.,
     2021, 17, 4250-4261. DOI: 10.1021/acs.jctc.1c00471
   
   for DFT-D4:
   * E. Caldeweyher, C. Bannwarth and S. Grimme, J. Chem. Phys., 2017,
     147, 034112. DOI: 10.1063/1.4993215
   * E. Caldeweyher, S. Ehlert, A. Hansen, H. Neugebauer, S. Spicher,
     C. Bannwarth and S. Grimme, J. Chem. Phys., 2019, 150, 154122.
     DOI: 10.1063/1.5090222
   * E. Caldeweyher, J.-M. Mewes, S. Ehlert and S. Grimme, Phys. Chem. Chem. Phys.
     2020, 22, 8499-8512. DOI: 10.1039/D0CP00502A
   
   for sTDA-xTB:
   * S. Grimme and C. Bannwarth, J. Chem. Phys., 2016, 145, 054103.
     DOI: 10.1063/1.4959605
   
   in the mass-spec context:
   * V. Asgeirsson, C. Bauer and S. Grimme, Chem. Sci., 2017, 8, 4879.
     DOI: 10.1039/c7sc00601b
   * J. Koopman and S. Grimme, ACS Omega 2019, 4, 12, 15120-15133.
     DOI: 10.1021/acsomega.9b02011
   
   for metadynamics refer to:
   * S. Grimme, J. Chem. Theory Comput., 2019, 155, 2847-2862
     DOI: 10.1021/acs.jctc.9b00143
   
   for SPH calculations refer to:
   * S. Spicher and S. Grimme, J. Chem. Theory Comput., 2021, 17, 1701-1714
     DOI: 10.1021/acs.jctc.0c01306
   
   with help from (in alphabetical order)
   P. Atkinson, C. Bannwarth, F. Bohle, G. Brandenburg, E. Caldeweyher
   M. Checinski, S. Dohm, S. Ehlert, S. Ehrlich, I. Gerasimov, C. Hölzer
   A. Katbashev, J. Koopman, C. Lavigne, S. Lehtola, F. März, M. Müller,
   F. Musil, H. Neugebauer, J. Pisarek, C. Plett, P. Pracht, F. Pultar,
   J. Seibert, P. Shushkov, S. Spicher, M. Stahn, M. Steiner, T. Strunk,
   J. Stückrath, T. Rose, and J. Unsleber
   
 * started run on 2023/12/04 at 15:19:46.947     

           -------------------------------------------------
          |                Calculation Setup                |
           -------------------------------------------------

          program call               : otool_xtb /tmp/C00345_XTB.xyz --grad -c 0 -u 0 -P 1 --namespace /tmp/C00345 --input /tmp/C00345_XTB.input.tmp --acc 1.000000
          calculation namespace      : /tmp/C00345
          coordinate file            : /tmp/C00345_XTB.xyz
          omp threads                :                     1

   ID    Z sym.   atoms
    1    8 O      1, 3, 5, 7, 9, 11, 13, 15-17
    2    6 C      2, 4, 6, 8, 10, 12
    3   15 P      14
    4    1 H      18-30

molecular fragmentation (1/2 indicates fragments):
111111111111111111111111111112
# atoms in fragment 1/2:    29     1
 fragment masses (1/2) :      275.13        1.01
CMA distance (Bohr)    :   2.962
constraining FC (au)   :  0.0500

           -------------------------------------------------
          |                 G F N 2 - x T B                 |
           -------------------------------------------------

        Reference                      10.1021/acs.jctc.8b01176
      * Hamiltonian:
        H0-scaling (s, p, d)           1.850000    2.230000    2.230000
        zeta-weighting                 0.500000
      * Dispersion:
        s8                             2.700000
        a1                             0.520000
        a2                             5.000000
        s9                             5.000000
      * Repulsion:
        kExp                           1.500000    1.000000
        rExp                           1.000000
      * Coulomb:
        alpha                          2.000000
        third order                    shell-resolved
        anisotropic                    true
        a3                             3.000000
        a5                             4.000000
        cn-shift                       1.200000
        cn-exp                         4.000000
        max-rad                        5.000000

q/qsh data taken from xtbrestart
CAMM data taken from xtbrestart

          ...................................................
          :                      SETUP                      :
          :.................................................:
          :  # basis functions                  87          :
          :  # atomic orbitals                  86          :
          :  # shells                           48          :
          :  # electrons                       102          :
          :  max. iterations                   250          :
          :  Hamiltonian                  GFN2-xTB          :
          :  restarted?                       true          :
          :  GBSA solvation                  false          :
          :  PC potential                    false          :
          :  electronic temp.          300.0000000     K    :
          :  accuracy                    1.0000000          :
          :  -> integral cutoff          0.2500000E+02      :
          :  -> integral neglect         0.1000000E-07      :
          :  -> SCF convergence          0.1000000E-05 Eh   :
          :  -> wf. convergence          0.1000000E-03 e    :
          :  Broyden damping             0.4000000          :
          ...................................................

 iter      E             dE          RMSdq      gap      omega  full diag
   1    -63.1587846 -0.631588E+02  0.106E+00    3.88       0.0  T
   2    -63.1609602 -0.217569E-02  0.648E-01    3.77       1.0  T
   3    -63.1611427 -0.182417E-03  0.143E-01    3.67       1.0  T
   4    -63.1611883 -0.455950E-04  0.646E-02    3.67       1.0  T
   5    -63.1611936 -0.539031E-05  0.194E-02    3.67       1.0  T
   6    -63.1611945 -0.861640E-06  0.727E-03    3.67       2.5  T
   7    -63.1611946 -0.915343E-07  0.277E-03    3.67       6.6  T
   8    -63.1611946 -0.289900E-07  0.931E-04    3.67      19.6  T
   9    -63.1611946 -0.413900E-08  0.274E-04    3.67      66.7  T

   *** convergence criteria satisfied after 9 iterations ***

         #    Occupation            Energy/Eh            Energy/eV
      -------------------------------------------------------------
         1        2.0000           -0.7913784             -21.5345
       ...           ...                  ...                  ...
        45        2.0000           -0.4548532             -12.3772
        46        2.0000           -0.4503483             -12.2546
        47        2.0000           -0.4394113             -11.9570
        48        2.0000           -0.4359683             -11.8633
        49        2.0000           -0.4252287             -11.5711
        50        2.0000           -0.4205389             -11.4434
        51        2.0000           -0.4146031             -11.2819 (HOMO)
        52                         -0.2796424              -7.6095 (LUMO)
        53                         -0.1931369              -5.2555
        54                         -0.0530702              -1.4441
        55                         -0.0428535              -1.1661
        56                         -0.0118708              -0.3230
       ...                                ...                  ...
        86                          1.2488531              33.9830
      -------------------------------------------------------------
                  HL-Gap            0.1349606 Eh            3.6725 eV
             Fermi-level           -0.3471228 Eh           -9.4457 eV

 SCC (total)                   0 d,  0 h,  0 min,  0.036 sec
 SCC setup                      ...        0 min,  0.000 sec (  0.579%)
 Dispersion                     ...        0 min,  0.000 sec (  0.655%)
 classical contributions        ...        0 min,  0.000 sec (  0.147%)
 integral evaluation            ...        0 min,  0.006 sec ( 16.290%)
 iterations                     ...        0 min,  0.012 sec ( 33.733%)
 molecular gradient             ...        0 min,  0.017 sec ( 48.115%)
 printout                       ...        0 min,  0.000 sec (  0.433%)

         :::::::::::::::::::::::::::::::::::::::::::::::::::::
         ::                     SUMMARY                     ::
         :::::::::::::::::::::::::::::::::::::::::::::::::::::
         :: total energy             -62.766504990529 Eh    ::
         :: gradient norm              0.120796141822 Eh/a0 ::
         :: HOMO-LUMO gap              3.672466175322 eV    ::
         ::.................................................::
         :: SCC energy               -63.161194630239 Eh    ::
         :: -> isotropic ES            0.251102853325 Eh    ::
         :: -> anisotropic ES         -0.009187759385 Eh    ::
         :: -> anisotropic XC         -0.009883512763 Eh    ::
         :: -> dispersion             -0.030120921890 Eh    ::
         :: repulsion energy           0.394382641294 Eh    ::
         :: add. restraining           0.000000000000 Eh    ::
         :: total charge               0.000000000000 e     ::
         :::::::::::::::::::::::::::::::::::::::::::::::::::::


Property printout bound to 'properties.out'

           -------------------------------------------------
          | TOTAL ENERGY              -62.766504990529 Eh   |
          | GRADIENT NORM               0.120796141822 Eh/α |
          | HOMO-LUMO GAP               3.672466175322 eV   |
           -------------------------------------------------

------------------------------------------------------------------------
 * finished run on 2023/12/04 at 15:19:46.996     
------------------------------------------------------------------------
 total:
 * wall-time:     0 d,  0 h,  0 min,  0.049 sec
 *  cpu-time:     0 d,  0 h,  0 min,  0.048 sec
 * ratio c/w:     0.990 speedup
 SCF:
 * wall-time:     0 d,  0 h,  0 min,  0.036 sec
 *  cpu-time:     0 d,  0 h,  0 min,  0.036 sec
 * ratio c/w:     0.994 speedup


-------------------------   --------------------
FINAL SINGLE POINT ENERGY       -62.766504990530
-------------------------   --------------------

------------------------------------------------------------------------------
                         ORCA GEOMETRY RELAXATION STEP
------------------------------------------------------------------------------

Reading the OPT-File                    .... done
Getting information on internals        .... done
Copying old internal coords+grads       .... done
Making the new internal coordinates     .... (new redundants).... done
Validating the new internal coordinates .... (new redundants).... done
Calculating the B-matrix                .... done
Calculating the G,G- and P matrices     .... done
Transforming gradient to internals      .... done
Projecting the internal gradient        .... done
Number of atoms                         ....  30
Number of internal coordinates          .... 154
Current Energy                          ....   -62.766504991 Eh
Current gradient norm                   ....     0.120796142 Eh/bohr
Maximum allowed component of the step   ....  0.300
Current trust radius                    ....  0.300
Evaluating the initial hessian          ....  (Almloef) done
Projecting the Hessian                  .... done
Forming the augmented Hessian           .... done
Diagonalizing the augmented Hessian     .... done
Last element of RFO vector              ....  0.889920986
Lowest eigenvalues of augmented Hessian:
 -0.040171191  0.009101839  0.009775514  0.010237568  0.011284049
Length of the computed step             ....  0.512533954
Warning: the length of the step is outside the trust region - taking restricted step instead
The input lambda is                     ....    -0.040171
   iter:   1  x=   -0.086012  g=    3.767196 f(x)=     0.172691
   iter:   2  x=   -0.125351  g=    1.556803 f(x)=     0.061244
   iter:   3  x=   -0.142307  g=    0.882946 f(x)=     0.014971
   iter:   4  x=   -0.144403  g=    0.714394 f(x)=     0.001498
   iter:   5  x=   -0.144430  g=    0.696690 f(x)=     0.000019
   iter:   6  x=   -0.144430  g=    0.696468 f(x)=     0.000000
   iter:   7  x=   -0.144430  g=    0.696468 f(x)=     0.000000
The output lambda is                    ....    -0.144430 (7 iterations)
The final length of the internal step   ....  0.300000000
Converting the step to cartesian space:
 Initial RMS(Int)=    0.0241746889
Transforming coordinates:
 Iter   0:  RMS(Cart)=    0.0447863539 RMS(Int)=    0.0241170233
 Iter   1:  RMS(Cart)=    0.0007886592 RMS(Int)=    0.0005215264
 Iter   2:  RMS(Cart)=    0.0000897070 RMS(Int)=    0.0000452417
 Iter   3:  RMS(Cart)=    0.0000071830 RMS(Int)=    0.0000034523
 Iter   4:  RMS(Cart)=    0.0000004723 RMS(Int)=    0.0000002407
 Iter   5:  RMS(Cart)=    0.0000000321 RMS(Int)=    0.0000000188
done
Storing new coordinates                 .... done

                                .--------------------.
          ----------------------|Geometry convergence|-------------------------
          Item                value                   Tolerance       Converged
          ---------------------------------------------------------------------
          RMS gradient        0.0067765246            0.0001000000      NO
          MAX gradient        0.0724001523            0.0003000000      NO
          RMS step            0.0241746889            0.0020000000      NO
          MAX step            0.2803339918            0.0040000000      NO
          ........................................................
          Max(Bonds)      0.1483      Max(Angles)    2.09
          Max(Dihed)        1.43      Max(Improp)    0.00
          ---------------------------------------------------------------------

The optimization has not yet converged - more geometry cycles are needed


    ---------------------------------------------------------------------------
                         Redundant Internal Coordinates
                            (Angstroem and degrees)

        Definition                    Value    dE/dq     Step     New-Value
    ----------------------------------------------------------------------------
     1. B(C   1,O   0)                1.1982  0.000225 -0.0001    1.1981   
     2. B(O   2,C   1)                1.3394  0.000675 -0.0004    1.3390   
     3. B(C   3,C   1)                1.5187 -0.001114  0.0011    1.5198   
     4. B(O   4,C   3)                1.4084  0.000570 -0.0005    1.4080   
     5. B(C   5,C   3)                1.5492  0.000582 -0.0006    1.5486   
     6. B(O   6,C   5)                1.4097 -0.003934  0.0042    1.4139   
     7. B(C   7,C   5)                1.5405 -0.000221  0.0006    1.5410   
     8. B(O   8,C   7)                1.4022  0.000389 -0.0003    1.4019   
     9. B(C   9,C   7)                1.5481  0.000774 -0.0005    1.5477   
    10. B(O  10,C   9)                1.4029  0.000415 -0.0003    1.4026   
    11. B(C  11,C   9)                1.5413  0.001336 -0.0026    1.5388   
    12. B(O  12,C  11)                1.4126  0.002981 -0.0035    1.4091   
    13. B(P  13,O  12)                1.6240 -0.001789  0.0003    1.6243   
    14. B(O  14,P  13)                1.4643 -0.002736  0.0009    1.4652   
    15. B(O  15,P  13)                1.5767 -0.009940  0.0048    1.5815   
    16. B(O  16,P  13)                1.5816  0.010730 -0.0055    1.5762   
    17. B(H  17,O   2)                0.9704 -0.000124  0.0001    0.9705   
    18. B(H  18,C   3)                1.1064 -0.000196  0.0002    1.1066   
    19. B(H  19,O   4)                0.9650  0.000381 -0.0003    0.9647   
    20. B(H  20,C   5)                1.0985  0.000821 -0.0009    1.0976   
    21. B(H  21,O   6)                0.9844  0.011956 -0.0102    0.9742   
    22. B(H  22,C   7)                1.0969 -0.000453  0.0005    1.0974   
    23. B(H  23,O   8)                0.9926  0.014211 -0.0124    0.9801   
    24. B(H  24,C   9)                1.0952 -0.000254  0.0003    1.0955   
    25. B(H  25,O  10)                0.9679  0.000150 -0.0001    0.9678   
    26. B(H  26,C  11)                1.0924 -0.000021  0.0000    1.0924   
    27. B(H  27,C  11)                1.0951 -0.000149  0.0002    1.0953   
    28. B(H  28,O  15)                0.9821  0.020369 -0.0173    0.9648   
    29. B(H  29,O  16)                1.3839  0.072400 -0.1483    1.2356   
    30. B(H  29,O   6)                1.6055  0.009485 -0.0228    1.5827   
    31. A(O   0,C   1,C   3)          125.64  0.000835   -0.08    125.56   
    32. A(O   2,C   1,C   3)          111.47  0.000217   -0.02    111.45   
    33. A(O   0,C   1,O   2)          122.87 -0.001068    0.10    122.97   
    34. A(C   1,O   2,H  17)          110.46 -0.000198    0.02    110.48   
    35. A(O   4,C   3,H  18)          110.39 -0.000069    0.03    110.42   
    36. A(C   5,C   3,H  18)          107.28 -0.000345    0.06    107.33   
    37. A(C   1,C   3,O   4)          112.70 -0.000301    0.03    112.72   
    38. A(C   1,C   3,C   5)          111.98  0.000459   -0.07    111.91   
    39. A(O   4,C   3,C   5)          107.63  0.000236   -0.04    107.58   
    40. A(C   1,C   3,H  18)          106.75  0.000006    0.01    106.76   
    41. A(C   3,O   4,H  19)          108.54 -0.000920    0.10    108.64   
    42. A(C   3,C   5,O   6)          108.18 -0.000987    0.05    108.23   
    43. A(O   6,C   5,H  20)          110.27  0.000636   -0.09    110.19   
    44. A(C   7,C   5,H  20)          108.85 -0.000630    0.01    108.86   
    45. A(C   3,C   5,H  20)          109.38  0.000118   -0.01    109.37   
    46. A(O   6,C   5,C   7)          109.75  0.000210    0.09    109.84   
    47. A(C   3,C   5,C   7)          110.39  0.000667   -0.05    110.34   
    48. A(H  21,O   6,H  29)          112.97  0.004871   -1.01    111.96   
    49. A(C   5,O   6,H  29)          110.29 -0.003326    0.62    110.91   
    50. A(C   5,O   6,H  21)          107.59 -0.002701    0.30    107.88   
    51. A(O   8,C   7,C   9)          112.02  0.001101   -0.13    111.89   
    52. A(C   5,C   7,C   9)          113.40 -0.002163    0.21    113.61   
    53. A(C   5,C   7,O   8)          112.13  0.001725   -0.32    111.81   
    54. A(C   9,C   7,H  22)          106.76  0.000341   -0.02    106.74   
    55. A(O   8,C   7,H  22)          105.01 -0.001200    0.19    105.20   
    56. A(C   5,C   7,H  22)          106.86  0.000140    0.11    106.96   
    57. A(C   7,O   8,H  23)          108.90 -0.000686    0.08    108.97   
    58. A(O  10,C   9,C  11)          110.46 -0.001489    0.26    110.72   
    59. A(C   7,C   9,C  11)          115.39  0.003536   -0.70    114.69   
    60. A(C   7,C   9,O  10)          108.34 -0.000365    0.03    108.37   
    61. A(C  11,C   9,H  24)          107.34 -0.001045    0.18    107.52   
    62. A(O  10,C   9,H  24)          106.25  0.001100   -0.12    106.13   
    63. A(C   7,C   9,H  24)          108.66 -0.001909    0.40    109.06   
    64. A(C   9,O  10,H  25)          107.57 -0.000303    0.03    107.61   
    65. A(O  12,C  11,H  27)          108.26 -0.002488    0.48    108.74   
    66. A(H  26,C  11,H  27)          109.12  0.000426    0.03    109.15   
    67. A(C   9,C  11,H  27)          107.53  0.000062    0.22    107.75   
    68. A(O  12,C  11,H  26)          109.60  0.000423   -0.16    109.45   
    69. A(C   9,C  11,H  26)          111.16 -0.002459    0.18    111.34   
    70. A(C   9,C  11,O  12)          111.08  0.003966   -0.73    110.36   
    71. A(C  11,O  12,P  13)          120.46  0.003553   -0.59    119.87   
    72. A(O  15,P  13,O  16)           96.70 -0.013379    1.59     98.29   
    73. A(O  14,P  13,O  16)          118.92 -0.000408    0.15    119.07   
    74. A(O  12,P  13,O  16)          105.66  0.003275   -0.52    105.14   
    75. A(O  14,P  13,O  15)          117.27  0.005653   -0.48    116.79   
    76. A(O  12,P  13,O  15)          101.47  0.002425   -0.17    101.30   
    77. A(O  12,P  13,O  14)          114.11  0.001183   -0.38    113.73   
    78. A(P  13,O  15,H  28)          108.72 -0.002496    0.25    108.97   
    79. A(P  13,O  16,H  29)          101.16 -0.008478    1.15    102.31   
    80. A(O   6,H  29,O  16)          134.32 -0.009411    2.09    136.40   
    81. D(H  17,O   2,C   1,C   3)   -178.17  0.000252   -0.09   -178.26   
    82. D(H  17,O   2,C   1,O   0)      0.18 -0.000295    0.11      0.29   
    83. D(H  18,C   3,C   1,O   0)    -83.34  0.000412   -0.15    -83.50   
    84. D(H  18,C   3,C   1,O   2)     94.95 -0.000192    0.06     95.02   
    85. D(O   4,C   3,C   1,O   2)    -26.39  0.000072    0.00    -26.39   
    86. D(O   4,C   3,C   1,O   0)    155.31  0.000676   -0.21    155.10   
    87. D(C   5,C   3,C   1,O   0)     33.79  0.000248   -0.12     33.67   
    88. D(C   5,C   3,C   1,O   2)   -147.91 -0.000355    0.09   -147.82   
    89. D(H  19,O   4,C   3,H  18)    -84.62 -0.000261    0.09    -84.53   
    90. D(H  19,O   4,C   3,C   5)    158.60  0.000053    0.03    158.63   
    91. D(H  19,O   4,C   3,C   1)     34.64 -0.000499    0.13     34.77   
    92. D(O   6,C   5,C   3,H  18)    -80.29  0.000040   -0.04    -80.33   
    93. D(O   6,C   5,C   3,O   4)     38.50 -0.000100   -0.00     38.50   
    94. D(C   7,C   5,C   3,C   1)    -77.00  0.000031    0.06    -76.93   
    95. D(O   6,C   5,C   3,C   1)    162.90 -0.000010   -0.05    162.85   
    96. D(H  20,C   5,C   3,H  18)    159.57 -0.000209    0.04    159.61   
    97. D(H  20,C   5,C   3,O   4)    -81.64 -0.000349    0.08    -81.56   
    98. D(H  20,C   5,C   3,C   1)     42.75 -0.000259    0.04     42.79   
    99. D(C   7,C   5,C   3,H  18)     39.82  0.000081    0.07     39.88   
   100. D(C   7,C   5,C   3,O   4)    158.61 -0.000058    0.11    158.71   
   101. D(H  29,O   6,C   5,H  20)   -178.65  0.000386   -0.25   -178.89   
   102. D(H  29,O   6,C   5,C   7)    -58.74  0.000138   -0.23    -58.97   
   103. D(H  29,O   6,C   5,C   3)     61.76  0.000472   -0.21     61.56   
   104. D(H  21,O   6,C   5,C   7)    177.64 -0.002034    0.43    178.07   
   105. D(H  21,O   6,C   5,C   3)    -61.85 -0.001700    0.45    -61.40   
   106. D(H  21,O   6,C   5,H  20)     57.73 -0.001786    0.42     58.15   
   107. D(C   9,C   7,C   5,C   3)    174.55 -0.000138   -0.08    174.47   
   108. D(O   8,C   7,C   5,O   6)     61.82  0.000361   -0.28     61.54   
   109. D(O   8,C   7,C   5,C   3)    -57.34  0.001035   -0.36    -57.71   
   110. D(C   9,C   7,C   5,O   6)    -66.29 -0.000812    0.01    -66.29   
   111. D(O   8,C   7,C   5,H  20)   -177.41  0.000878   -0.33   -177.74   
   112. D(H  22,C   7,C   5,H  20)    -62.87  0.000418   -0.20    -63.08   
   113. D(H  22,C   7,C   5,O   6)    176.35 -0.000098   -0.15    176.20   
   114. D(H  22,C   7,C   5,C   3)     57.20  0.000575   -0.24     56.96   
   115. D(C   9,C   7,C   5,H  20)     54.48 -0.000295   -0.04     54.44   
   116. D(H  23,O   8,C   7,H  22)    166.92  0.000501   -0.20    166.72   
   117. D(H  23,O   8,C   7,C   9)     51.42  0.000248   -0.22     51.20   
   118. D(H  23,O   8,C   7,C   5)    -77.42  0.000822   -0.12    -77.54   
   119. D(H  24,C   9,C   7,O   8)    170.45 -0.000417    0.01    170.47   
   120. D(H  24,C   9,C   7,C   5)    -61.38  0.001080   -0.37    -61.75   
   121. D(C  11,C   9,C   7,H  22)    176.58 -0.000156   -0.07    176.51   
   122. D(C  11,C   9,C   7,O   8)    -68.99 -0.000825    0.08    -68.91   
   123. D(C  11,C   9,C   7,C   5)     59.18  0.000672   -0.30     58.87   
   124. D(O  10,C   9,C   7,H  22)    -59.01  0.000149   -0.21    -59.22   
   125. D(O  10,C   9,C   7,O   8)     55.42 -0.000520   -0.06     55.35   
   126. D(H  24,C   9,C   7,H  22)     56.02  0.000252   -0.13     55.89   
   127. D(O  10,C   9,C   7,C   5)   -176.42  0.000977   -0.44   -176.87   
   128. D(H  25,O  10,C   9,H  24)   -166.58  0.000457   -0.15   -166.73   
   129. D(H  25,O  10,C   9,C  11)     77.32  0.001834   -0.43     76.89   
   130. D(H  25,O  10,C   9,C   7)    -49.97 -0.001374    0.26    -49.71   
   131. D(H  27,C  11,C   9,O  10)     47.75  0.000672   -0.30     47.45   
   132. D(H  27,C  11,C   9,C   7)    171.04  0.001652   -0.58    170.46   
   133. D(H  26,C  11,C   9,H  24)     51.70 -0.000139   -0.11     51.59   
   134. D(H  26,C  11,C   9,O  10)    167.13 -0.000197   -0.02    167.11   
   135. D(H  26,C  11,C   9,C   7)    -69.58  0.000782   -0.30    -69.88   
   136. D(O  12,C  11,C   9,H  24)    174.04  0.001464   -0.70    173.34   
   137. D(O  12,C  11,C   9,O  10)    -70.53  0.001405   -0.60    -71.14   
   138. D(H  27,C  11,C   9,H  24)    -67.68  0.000731   -0.39    -68.07   
   139. D(O  12,C  11,C   9,C   7)     52.76  0.002385   -0.89     51.87   
   140. D(P  13,O  12,C  11,H  27)    114.20  0.000241    0.20    114.40   
   141. D(P  13,O  12,C  11,H  26)     -4.73  0.000951   -0.03     -4.76   
   142. D(P  13,O  12,C  11,C   9)   -127.96  0.001086    0.34   -127.62   
   143. D(O  14,P  13,O  12,C  11)    -15.62  0.003724   -0.87    -16.49   
   144. D(O  16,P  13,O  12,C  11)    116.89  0.006939   -1.43    115.47   
   145. D(O  15,P  13,O  12,C  11)   -142.70 -0.005752    0.08   -142.62   
   146. D(H  28,O  15,P  13,O  16)   -152.85  0.002679   -0.45   -153.30   
   147. D(H  28,O  15,P  13,O  14)    -25.38 -0.004653    0.65    -24.74   
   148. D(H  28,O  15,P  13,O  12)     99.62  0.002171   -0.27     99.35   
   149. D(H  29,O  16,P  13,O  15)   -168.60  0.001938   -0.62   -169.22   
   150. D(H  29,O  16,P  13,O  14)     65.11  0.005316   -1.32     63.79   
   151. D(H  29,O  16,P  13,O  12)    -64.66  0.000868   -0.40    -65.06   
   152. D(O   6,H  29,O  16,P  13)    -14.54  0.000281   -0.13    -14.66   
   153. D(O  16,H  29,O   6,H  21)   -101.01 -0.002296    0.59   -100.42   
   154. D(O  16,H  29,O   6,C   5)    138.56  0.000218    0.45    139.01   
    ----------------------------------------------------------------------------

         *************************************************************
         *                GEOMETRY OPTIMIZATION CYCLE   2            *
         *************************************************************
---------------------------------
CARTESIAN COORDINATES (ANGSTROEM)
---------------------------------
  O     3.559951   -0.841077    0.032882
  C     3.322075    0.116437    0.712650
  O     4.245781    0.718160    1.472588
  C     1.979635    0.822870    0.805679
  O     1.811189    1.512818    2.021423
  C     0.795668   -0.164594    0.660230
  O    -0.371592    0.470090    1.143866
  C     0.603570   -0.556818   -0.817581
  O     0.383983    0.564587   -1.629685
  C    -0.473775   -1.646543   -1.034766
  O    -0.506994   -1.969380   -2.399273
  C    -1.878100   -1.271910   -0.529545
  O    -2.267986   -0.021152   -1.048255
  P    -2.787089    1.144775   -0.043510
  O    -3.158359    0.654838    1.286515
  O    -3.935970    1.807352   -0.905108
  O    -1.718935    2.297430   -0.164093
  H     5.103142    0.272557    1.381678
  H     1.929273    1.525968   -0.047367
  H     2.665540    1.866580    2.296205
  H     1.003548   -1.070732    1.243677
  H    -0.231170    0.677333    2.085331
  H     1.555346   -0.980167   -1.162818
  H    -0.543148    0.862311   -1.518025
  H    -0.168666   -2.560320   -0.513163
  H    -0.565009   -1.140217   -2.894957
  H    -1.912555   -1.239708    0.561881
  H    -2.576716   -2.035168   -0.888659
  H    -4.787580    1.462525   -0.610554
  H    -0.703366    1.764711    0.295899

----------------------------
CARTESIAN COORDINATES (A.U.)
----------------------------
  NO LB    ZA    FRAG    MASS        X           Y           Z
   0 O   8.0000    0    15.999    6.727332   -1.589405    0.062138
   1 C   6.0000    0    12.011    6.277811    0.220034    1.346713
   2 O   8.0000    0    15.999    8.023363    1.357126    2.782788
   3 C   6.0000    0    12.011    3.740968    1.554999    1.522512
   4 O   8.0000    0    15.999    3.422651    2.858812    3.819935
   5 C   6.0000    0    12.011    1.503595   -0.311038    1.247653
   6 O   8.0000    0    15.999   -0.702207    0.888341    2.161593
   7 C   6.0000    0    12.011    1.140582   -1.052234   -1.545004
   8 O   8.0000    0    15.999    0.725622    1.066915   -3.079659
   9 C   6.0000    0    12.011   -0.895304   -3.111516   -1.955424
  10 O   8.0000    0    15.999   -0.958080   -3.721588   -4.533969
  11 C   6.0000    0    12.011   -3.549094   -2.403562   -1.000695
  12 O   8.0000    0    15.999   -4.285873   -0.039972   -1.980915
  13 P  15.0000    0    30.974   -5.266835    2.163312   -0.082222
  14 O   8.0000    0    15.999   -5.968433    1.237465    2.431161
  15 O   8.0000    0    15.999   -7.437905    3.415399   -1.710405
  16 O   8.0000    0    15.999   -3.248315    4.341514   -0.310090
  17 H   1.0000    0     1.008    9.643540    0.515057    2.610993
  18 H   1.0000    0     1.008    3.645798    2.883662   -0.089511
  19 H   1.0000    0     1.008    5.037141    3.527325    4.339199
  20 H   1.0000    0     1.008    1.896431   -2.023389    2.350209
  21 H   1.0000    0     1.008   -0.436847    1.279975    3.940704
  22 H   1.0000    0     1.008    2.939177   -1.852248   -2.197407
  23 H   1.0000    0     1.008   -1.026402    1.629532   -2.868652
  24 H   1.0000    0     1.008   -0.318733   -4.838304   -0.969738
  25 H   1.0000    0     1.008   -1.067713   -2.154697   -5.470675
  26 H   1.0000    0     1.008   -3.614206   -2.342709    1.061802
  27 H   1.0000    0     1.008   -4.869288   -3.845910   -1.679323
  28 H   1.0000    0     1.008   -9.047214    2.763772   -1.153780
  29 H   1.0000    0     1.008   -1.329169    3.334820    0.559169

      -----------------------------------------------------------      
     |                   =====================                   |     
     |                           x T B                           |     
     |                   =====================                   |     
     |                         S. Grimme                         |     
     |          Mulliken Center for Theoretical Chemistry        |     
     |                    University of Bonn                     |     
      -----------------------------------------------------------      

   * xtb version 6.5.1 (579679a) compiled by 'ehlert@majestix' on 2022-07-11

   xtb is free software: you can redistribute it and/or modify it under
   the terms of the GNU Lesser General Public License as published by
   the Free Software Foundation, either version 3 of the License, or
   (at your option) any later version.
   
   xtb is distributed in the hope that it will be useful,
   but WITHOUT ANY WARRANTY; without even the implied warranty of
   MERCHANTABILITY or FITNESS FOR A PARTICULAR PURPOSE.  See the
   GNU Lesser General Public License for more details.
   
   Cite this work as:
   * C. Bannwarth, E. Caldeweyher, S. Ehlert, A. Hansen, P. Pracht,
     J. Seibert, S. Spicher, S. Grimme, WIREs Comput. Mol. Sci., 2020, 11,
     e01493. DOI: 10.1002/wcms.1493
   
   for GFN2-xTB:
   * C. Bannwarth, S. Ehlert and S. Grimme., J. Chem. Theory Comput., 2019,
     15, 1652-1671. DOI: 10.1021/acs.jctc.8b01176
   for GFN1-xTB:
   * S. Grimme, C. Bannwarth, P. Shushkov, J. Chem. Theory Comput., 2017,
     13, 1989-2009. DOI: 10.1021/acs.jctc.7b00118
   for GFN0-xTB:
   * P. Pracht, E. Caldeweyher, S. Ehlert, S. Grimme, ChemRxiv, 2019, preprint.
     DOI: 10.26434/chemrxiv.8326202.v1
   for GFN-FF:
   * S. Spicher and S. Grimme, Angew. Chem. Int. Ed., 2020, 59, 15665-15673.
     DOI: 10.1002/anie.202004239
   
   for ALPB and GBSA implicit solvation:
   * S. Ehlert, M. Stahn, S. Spicher, S. Grimme, J. Chem. Theory Comput.,
     2021, 17, 4250-4261. DOI: 10.1021/acs.jctc.1c00471
   
   for DFT-D4:
   * E. Caldeweyher, C. Bannwarth and S. Grimme, J. Chem. Phys., 2017,
     147, 034112. DOI: 10.1063/1.4993215
   * E. Caldeweyher, S. Ehlert, A. Hansen, H. Neugebauer, S. Spicher,
     C. Bannwarth and S. Grimme, J. Chem. Phys., 2019, 150, 154122.
     DOI: 10.1063/1.5090222
   * E. Caldeweyher, J.-M. Mewes, S. Ehlert and S. Grimme, Phys. Chem. Chem. Phys.
     2020, 22, 8499-8512. DOI: 10.1039/D0CP00502A
   
   for sTDA-xTB:
   * S. Grimme and C. Bannwarth, J. Chem. Phys., 2016, 145, 054103.
     DOI: 10.1063/1.4959605
   
   in the mass-spec context:
   * V. Asgeirsson, C. Bauer and S. Grimme, Chem. Sci., 2017, 8, 4879.
     DOI: 10.1039/c7sc00601b
   * J. Koopman and S. Grimme, ACS Omega 2019, 4, 12, 15120-15133.
     DOI: 10.1021/acsomega.9b02011
   
   for metadynamics refer to:
   * S. Grimme, J. Chem. Theory Comput., 2019, 155, 2847-2862
     DOI: 10.1021/acs.jctc.9b00143
   
   for SPH calculations refer to:
   * S. Spicher and S. Grimme, J. Chem. Theory Comput., 2021, 17, 1701-1714
     DOI: 10.1021/acs.jctc.0c01306
   
   with help from (in alphabetical order)
   P. Atkinson, C. Bannwarth, F. Bohle, G. Brandenburg, E. Caldeweyher
   M. Checinski, S. Dohm, S. Ehlert, S. Ehrlich, I. Gerasimov, C. Hölzer
   A. Katbashev, J. Koopman, C. Lavigne, S. Lehtola, F. März, M. Müller,
   F. Musil, H. Neugebauer, J. Pisarek, C. Plett, P. Pracht, F. Pultar,
   J. Seibert, P. Shushkov, S. Spicher, M. Stahn, M. Steiner, T. Strunk,
   J. Stückrath, T. Rose, and J. Unsleber
   
 * started run on 2023/12/04 at 15:19:47.103     

           -------------------------------------------------
          |                Calculation Setup                |
           -------------------------------------------------

          program call               : otool_xtb /tmp/C00345_XTB.xyz --grad -c 0 -u 0 -P 1 --namespace /tmp/C00345 --input /tmp/C00345_XTB.input.tmp --acc 1.000000
          calculation namespace      : /tmp/C00345
          coordinate file            : /tmp/C00345_XTB.xyz
          omp threads                :                     1

   ID    Z sym.   atoms
    1    8 O      1, 3, 5, 7, 9, 11, 13, 15-17
    2    6 C      2, 4, 6, 8, 10, 12
    3   15 P      14
    4    1 H      18-30

           -------------------------------------------------
          |                 G F N 2 - x T B                 |
           -------------------------------------------------

        Reference                      10.1021/acs.jctc.8b01176
      * Hamiltonian:
        H0-scaling (s, p, d)           1.850000    2.230000    2.230000
        zeta-weighting                 0.500000
      * Dispersion:
        s8                             2.700000
        a1                             0.520000
        a2                             5.000000
        s9                             5.000000
      * Repulsion:
        kExp                           1.500000    1.000000
        rExp                           1.000000
      * Coulomb:
        alpha                          2.000000
        third order                    shell-resolved
        anisotropic                    true
        a3                             3.000000
        a5                             4.000000
        cn-shift                       1.200000
        cn-exp                         4.000000
        max-rad                        5.000000

q/qsh data taken from xtbrestart
CAMM data taken from xtbrestart

          ...................................................
          :                      SETUP                      :
          :.................................................:
          :  # basis functions                  87          :
          :  # atomic orbitals                  86          :
          :  # shells                           48          :
          :  # electrons                       102          :
          :  max. iterations                   250          :
          :  Hamiltonian                  GFN2-xTB          :
          :  restarted?                       true          :
          :  GBSA solvation                  false          :
          :  PC potential                    false          :
          :  electronic temp.          300.0000000     K    :
          :  accuracy                    1.0000000          :
          :  -> integral cutoff          0.2500000E+02      :
          :  -> integral neglect         0.1000000E-07      :
          :  -> SCF convergence          0.1000000E-05 Eh   :
          :  -> wf. convergence          0.1000000E-03 e    :
          :  Broyden damping             0.4000000          :
          ...................................................

 iter      E             dE          RMSdq      gap      omega  full diag
   1    -63.1895569 -0.631896E+02  0.232E-01    3.68       0.0  T
   2    -63.1896357 -0.787618E-04  0.125E-01    3.69       1.0  T
   3    -63.1896515 -0.158276E-04  0.343E-02    3.70       1.0  T
   4    -63.1896523 -0.783196E-06  0.113E-02    3.70       1.6  T
   5    -63.1896532 -0.865181E-06  0.435E-03    3.71       4.2  T
   6    -63.1896532 -0.611748E-07  0.166E-03    3.70      11.0  T
   7    -63.1896532 -0.672486E-08  0.823E-04    3.70      22.2  T
   8    -63.1896532 -0.282897E-08  0.206E-04    3.70      88.7  T

   *** convergence criteria satisfied after 8 iterations ***

         #    Occupation            Energy/Eh            Energy/eV
      -------------------------------------------------------------
         1        2.0000           -0.7895816             -21.4856
       ...           ...                  ...                  ...
        45        2.0000           -0.4561144             -12.4115
        46        2.0000           -0.4479634             -12.1897
        47        2.0000           -0.4400502             -11.9744
        48        2.0000           -0.4364671             -11.8769
        49        2.0000           -0.4274758             -11.6322
        50        2.0000           -0.4244480             -11.5498
        51        2.0000           -0.4135819             -11.2541 (HOMO)
        52                         -0.2774400              -7.5495 (LUMO)
        53                         -0.1218088              -3.3146
        54                         -0.0487661              -1.3270
        55                         -0.0374445              -1.0189
        56                         -0.0088160              -0.2399
       ...                                ...                  ...
        86                          1.2584442              34.2440
      -------------------------------------------------------------
                  HL-Gap            0.1361419 Eh            3.7046 eV
             Fermi-level           -0.3455110 Eh           -9.4018 eV

 SCC (total)                   0 d,  0 h,  0 min,  0.035 sec
 SCC setup                      ...        0 min,  0.000 sec (  0.568%)
 Dispersion                     ...        0 min,  0.000 sec (  0.673%)
 classical contributions        ...        0 min,  0.000 sec (  0.148%)
 integral evaluation            ...        0 min,  0.006 sec ( 17.119%)
 iterations                     ...        0 min,  0.011 sec ( 32.016%)
 molecular gradient             ...        0 min,  0.017 sec ( 48.889%)
 printout                       ...        0 min,  0.000 sec (  0.533%)

         :::::::::::::::::::::::::::::::::::::::::::::::::::::
         ::                     SUMMARY                     ::
         :::::::::::::::::::::::::::::::::::::::::::::::::::::
         :: total energy             -62.788676687285 Eh    ::
         :: gradient norm              0.099650517422 Eh/a0 ::
         :: HOMO-LUMO gap              3.704608617325 eV    ::
         ::.................................................::
         :: SCC energy               -63.189653223516 Eh    ::
         :: -> isotropic ES            0.249154958118 Eh    ::
         :: -> anisotropic ES         -0.009592735118 Eh    ::
         :: -> anisotropic XC         -0.009770571021 Eh    ::
         :: -> dispersion             -0.030172943368 Eh    ::
         :: repulsion energy           0.400675780522 Eh    ::
         :: add. restraining           0.000000000000 Eh    ::
         :: total charge               0.000000000000 e     ::
         :::::::::::::::::::::::::::::::::::::::::::::::::::::


Property printout bound to 'properties.out'

           -------------------------------------------------
          | TOTAL ENERGY              -62.788676687285 Eh   |
          | GRADIENT NORM               0.099650517422 Eh/α |
          | HOMO-LUMO GAP               3.704608617325 eV   |
           -------------------------------------------------

------------------------------------------------------------------------
 * finished run on 2023/12/04 at 15:19:47.150     
------------------------------------------------------------------------
 total:
 * wall-time:     0 d,  0 h,  0 min,  0.047 sec
 *  cpu-time:     0 d,  0 h,  0 min,  0.044 sec
 * ratio c/w:     0.928 speedup
 SCF:
 * wall-time:     0 d,  0 h,  0 min,  0.035 sec
 *  cpu-time:     0 d,  0 h,  0 min,  0.036 sec
 * ratio c/w:     1.022 speedup


-------------------------   --------------------
FINAL SINGLE POINT ENERGY       -62.788676687280
-------------------------   --------------------

------------------------------------------------------------------------------
                         ORCA GEOMETRY RELAXATION STEP
------------------------------------------------------------------------------

Reading the OPT-File                    .... done
Getting information on internals        .... done
Copying old internal coords+grads       .... done
Making the new internal coordinates     .... (new redundants).... done
Validating the new internal coordinates .... (new redundants).... done
Calculating the B-matrix                .... done
Calculating the G,G- and P matrices     .... done
Transforming gradient to internals      .... done
Projecting the internal gradient        .... done
Number of atoms                         ....  30
Number of internal coordinates          .... 154
Current Energy                          ....   -62.788676687 Eh
Current gradient norm                   ....     0.099650517 Eh/bohr
Maximum allowed component of the step   ....  0.300
Current trust radius                    ....  0.300
Updating the Hessian (BFGS)             .... done
Forming the augmented Hessian           .... done
Diagonalizing the augmented Hessian     .... done
Last element of RFO vector              ....  0.781851364
Lowest eigenvalues of augmented Hessian:
 -0.052273447  0.009113203  0.009774744  0.010253507  0.011283031
Length of the computed step             ....  0.797421223
Warning: the length of the step is outside the trust region - taking restricted step instead
The input lambda is                     ....    -0.052273
   iter:   1  x=   -0.086890  g=   15.769255 f(x)=     0.545881
   iter:   2  x=   -0.128281  g=    5.372954 f(x)=     0.222389
   iter:   3  x=   -0.165656  g=    2.146805 f(x)=     0.080238
   iter:   4  x=   -0.184675  g=    1.134798 f(x)=     0.021583
   iter:   5  x=   -0.187915  g=    0.859162 f(x)=     0.002784
   iter:   6  x=   -0.187990  g=    0.821441 f(x)=     0.000062
   iter:   7  x=   -0.187990  g=    0.820593 f(x)=     0.000000
   iter:   8  x=   -0.187990  g=    0.820593 f(x)=     0.000000
   iter:   9  x=   -0.187990  g=    0.820593 f(x)=    -0.000000
The output lambda is                    ....    -0.187990 (9 iterations)
The final length of the internal step   ....  0.300000000
Converting the step to cartesian space:
 Initial RMS(Int)=    0.0241746889
Transforming coordinates:
 Iter   0:  RMS(Cart)=    0.0326744020 RMS(Int)=    0.0241678425
 Iter   1:  RMS(Cart)=    0.0006646535 RMS(Int)=    0.0003878857
 Iter   2:  RMS(Cart)=    0.0000684103 RMS(Int)=    0.0000282882
 Iter   3:  RMS(Cart)=    0.0000064785 RMS(Int)=    0.0000032135
 Iter   4:  RMS(Cart)=    0.0000006778 RMS(Int)=    0.0000004584
 Iter   5:  RMS(Cart)=    0.0000000838 RMS(Int)=    0.0000000770
done
Storing new coordinates                 .... done

                                .--------------------.
          ----------------------|Geometry convergence|-------------------------
          Item                value                   Tolerance       Converged
          ---------------------------------------------------------------------
          Energy change      -0.0221716968            0.0000050000      NO
          RMS gradient        0.0054065169            0.0001000000      NO
          MAX gradient        0.0618870903            0.0003000000      NO
          RMS step            0.0241746889            0.0020000000      NO
          MAX step            0.2831384663            0.0040000000      NO
          ........................................................
          Max(Bonds)      0.1498      Max(Angles)    2.79
          Max(Dihed)        1.44      Max(Improp)    0.00
          ---------------------------------------------------------------------

The optimization has not yet converged - more geometry cycles are needed


    ---------------------------------------------------------------------------
                         Redundant Internal Coordinates
                            (Angstroem and degrees)

        Definition                    Value    dE/dq     Step     New-Value
    ----------------------------------------------------------------------------
     1. B(C   1,O   0)                1.1981 -0.000017 -0.0000    1.1981   
     2. B(O   2,C   1)                1.3390  0.000414 -0.0005    1.3385   
     3. B(C   3,C   1)                1.5198 -0.000567  0.0009    1.5207   
     4. B(O   4,C   3)                1.4080  0.000308 -0.0004    1.4076   
     5. B(C   5,C   3)                1.5486  0.000319 -0.0005    1.5480   
     6. B(O   6,C   5)                1.4139 -0.002707  0.0042    1.4181   
     7. B(C   7,C   5)                1.5410 -0.000401  0.0009    1.5419   
     8. B(O   8,C   7)                1.4019 -0.000220  0.0003    1.4021   
     9. B(C   9,C   7)                1.5477 -0.000666  0.0013    1.5490   
    10. B(O  10,C   9)                1.4026  0.000324 -0.0004    1.4022   
    11. B(C  11,C   9)                1.5387 -0.001675  0.0022    1.5409   
    12. B(O  12,C  11)                1.4091 -0.000773  0.0003    1.4093   
    13. B(P  13,O  12)                1.6243 -0.002201  0.0016    1.6259   
    14. B(O  14,P  13)                1.4652 -0.000633  0.0005    1.4657   
    15. B(O  15,P  13)                1.5815 -0.004923  0.0045    1.5861   
    16. B(O  16,P  13)                1.5761  0.004653 -0.0046    1.5715   
    17. B(H  17,O   2)                0.9705 -0.000051  0.0001    0.9706   
    18. B(H  18,C   3)                1.1066  0.000019 -0.0000    1.1066   
    19. B(H  19,O   4)                0.9647  0.000169 -0.0002    0.9644   
    20. B(H  20,C   5)                1.0976  0.000106 -0.0002    1.0974   
    21. B(H  21,O   6)                0.9742  0.004516 -0.0065    0.9677   
    22. B(H  22,C   7)                1.0974 -0.000030  0.0000    1.0974   
    23. B(H  23,O   8)                0.9801  0.006638 -0.0096    0.9706   
    24. B(H  24,C   9)                1.0955 -0.000042  0.0001    1.0956   
    25. B(H  25,O  10)                0.9678  0.000023 -0.0000    0.9677   
    26. B(H  26,C  11)                1.0924  0.000126 -0.0002    1.0922   
    27. B(H  27,C  11)                1.0953 -0.000043  0.0001    1.0953   
    28. B(H  28,O  15)                0.9648  0.007332 -0.0105    0.9543   
    29. B(H  29,O  16)                1.2356  0.061887 -0.1498    1.0858   
    30. B(H  29,O   6)                1.5828 -0.000957  0.0133    1.5961   
    31. A(O   0,C   1,C   3)          125.56  0.000356   -0.06    125.51   
    32. A(O   2,C   1,C   3)          111.45  0.000152   -0.02    111.43   
    33. A(O   0,C   1,O   2)          122.97 -0.000519    0.08    123.05   
    34. A(C   1,O   2,H  17)          110.48 -0.000145    0.02    110.51   
    35. A(O   4,C   3,H  18)          110.42 -0.000002    0.01    110.43   
    36. A(C   5,C   3,H  18)          107.33 -0.000241    0.06    107.39   
    37. A(C   1,C   3,O   4)          112.72 -0.000001   -0.01    112.71   
    38. A(C   1,C   3,C   5)          111.91  0.000436   -0.09    111.82   
    39. A(O   4,C   3,C   5)          107.58 -0.000149    0.03    107.61   
    40. A(C   1,C   3,H  18)          106.76 -0.000054    0.01    106.76   
    41. A(C   3,O   4,H  19)          108.64 -0.000590    0.10    108.75   
    42. A(C   3,C   5,O   6)          108.23 -0.001359    0.23    108.45   
    43. A(O   6,C   5,H  20)          110.19  0.001088   -0.26    109.92   
    44. A(C   7,C   5,H  20)          108.86 -0.000675    0.06    108.92   
    45. A(C   3,C   5,H  20)          109.37 -0.000015    0.02    109.39   
    46. A(O   6,C   5,C   7)          109.84 -0.000040    0.11    109.95   
    47. A(C   3,C   5,C   7)          110.35  0.001020   -0.16    110.19   
    48. A(H  21,O   6,H  29)          111.96  0.004926   -1.08    110.88   
    49. A(C   5,O   6,H  29)          110.91 -0.008378    1.97    112.88   
    50. A(C   5,O   6,H  21)          107.88 -0.000891    0.24    108.13   
    51. A(O   8,C   7,C   9)          111.89  0.001040   -0.15    111.75   
    52. A(C   5,C   7,C   9)          113.61 -0.001486    0.25    113.87   
    53. A(C   5,C   7,O   8)          111.81  0.000651   -0.12    111.69   
    54. A(C   9,C   7,H  22)          106.74 -0.000247    0.06    106.80   
    55. A(O   8,C   7,H  22)          105.20 -0.000181   -0.04    105.16   
    56. A(C   5,C   7,H  22)          106.96  0.000236   -0.02    106.94   
    57. A(C   7,O   8,H  23)          108.97 -0.000543    0.10    109.07   
    58. A(O  10,C   9,C  11)          110.72 -0.000874    0.17    110.89   
    59. A(C   7,C   9,C  11)          114.70  0.001309   -0.28    114.41   
    60. A(C   7,C   9,O  10)          108.37  0.000543   -0.11    108.26   
    61. A(C  11,C   9,H  24)          107.51 -0.000274    0.08    107.59   
    62. A(O  10,C   9,H  24)          106.13  0.000539   -0.14    105.99   
    63. A(C   7,C   9,H  24)          109.06 -0.001319    0.29    109.36   
    64. A(C   9,O  10,H  25)          107.61 -0.000116    0.02    107.63   
    65. A(O  12,C  11,H  27)          108.75 -0.001308    0.31    109.05   
    66. A(H  26,C  11,H  27)          109.15  0.000194   -0.07    109.08   
    67. A(C   9,C  11,H  27)          107.75  0.000150    0.07    107.81   
    68. A(O  12,C  11,H  26)          109.44  0.001283   -0.24    109.20   
    69. A(C   9,C  11,H  26)          111.35 -0.000957    0.14    111.48   
    70. A(C   9,C  11,O  12)          110.35  0.000592   -0.18    110.17   
    71. A(C  11,O  12,P  13)          119.86  0.003075   -0.53    119.33   
    72. A(O  15,P  13,O  16)           98.29 -0.007763    1.32     99.61   
    73. A(O  14,P  13,O  16)          119.06 -0.000356    0.11    119.17   
    74. A(O  12,P  13,O  16)          105.13  0.003020   -0.54    104.59   
    75. A(O  14,P  13,O  15)          116.78  0.004266   -0.64    116.13   
    76. A(O  12,P  13,O  15)          101.30  0.000155   -0.01    101.29   
    77. A(O  12,P  13,O  14)          113.73  0.000037   -0.12    113.61   
    78. A(P  13,O  15,H  28)          108.97 -0.001749    0.28    109.26   
    79. A(P  13,O  16,H  29)          102.31 -0.007172    1.51    103.82   
    80. A(O   6,H  29,O  16)          136.42 -0.010469    2.79    139.21   
    81. D(H  17,O   2,C   1,C   3)   -178.26  0.000197   -0.05   -178.31   
    82. D(H  17,O   2,C   1,O   0)      0.29 -0.000211    0.05      0.34   
    83. D(H  18,C   3,C   1,O   0)    -83.50  0.000365   -0.10    -83.59   
[...]
     44      -0.000004   0.000023   0.000099  -0.000380  -0.000004  -0.000287
     45       0.000009   0.000002   0.000101  -0.000019   0.000069   0.051273
     46       0.000002   0.000047   0.000033  -0.000008   0.000010   0.006267
     47      -0.000017  -0.000031  -0.000306   0.000599  -0.000058  -0.035467
     48       0.000204  -0.000432   0.012614  -0.053267   0.000244  -0.000811
     49      -0.000027   0.000128  -0.001650   0.007096  -0.000042  -0.000120
     50       0.000108  -0.000274   0.006617  -0.027954   0.000131  -0.000283
     51      -0.850339   0.000729   0.004447  -0.000033   0.012464   0.000318
     52       0.521247  -0.000493  -0.002720  -0.000064  -0.008480  -0.000171
     53       0.018020   0.000015  -0.000156  -0.000021  -0.000629   0.000009
     54       0.000472   0.000237  -0.000004  -0.000499   0.001286  -0.000066
     55       0.000415  -0.000087  -0.000253  -0.000476   0.001750  -0.000072
     56      -0.000497   0.000364   0.001153   0.001189  -0.002240   0.000079
     57      -0.013716  -0.000955  -0.038473  -0.013222  -0.883359   0.001340
     58      -0.005181  -0.000399  -0.016959  -0.005455  -0.362561   0.000531
     59      -0.003930  -0.000222  -0.013299  -0.005061  -0.286311   0.000442
     60       0.000069   0.000116  -0.000776   0.001438   0.000134  -0.000017
     61      -0.000789  -0.000050  -0.000178  -0.003454  -0.001260   0.000201
     62       0.000518   0.000075  -0.000834   0.001389   0.001066  -0.000106
     63      -0.000612  -0.000497  -0.121211  -0.027937   0.005272   0.000702
     64      -0.001534  -0.000738  -0.306264  -0.070107   0.014655   0.000670
     65      -0.004704  -0.001954  -0.912032  -0.218663   0.043697   0.002286
     66       0.001344  -0.002345   0.000243   0.000154   0.000052   0.000125
     67      -0.000517   0.001053   0.000040   0.000228   0.000010  -0.000094
     68      -0.000227   0.000135   0.000532  -0.000186   0.000023   0.000009
     69       0.027567  -0.055514  -0.038413   0.070023   0.001601   0.004983
     70      -0.009857   0.019171   0.014186  -0.024950  -0.000429  -0.001503
     71      -0.004171   0.010529   0.005497  -0.010011  -0.000237  -0.001111
     72       0.000057   0.002674   0.000235  -0.000349   0.000060  -0.000068
     73      -0.000185  -0.005016  -0.000408   0.000608  -0.000185   0.000099
     74       0.000114   0.000647   0.000555  -0.000035   0.000131  -0.000114
     75       0.000244   0.038492  -0.000302   0.000526   0.000013   0.000055
     76      -0.002130  -0.836953   0.002183   0.003630   0.000756   0.000066
     77       0.001573   0.538999  -0.001603  -0.002189  -0.000381  -0.000050
     78       0.000006  -0.000572   0.000207   0.000605  -0.000045   0.000279
     79       0.000009  -0.000000   0.000732  -0.000106  -0.000068  -0.000279
     80       0.000052   0.001786   0.002401  -0.001096   0.000135  -0.000070
     81      -0.000163  -0.000294  -0.000435  -0.000019  -0.000087   0.000424
     82      -0.000085   0.000457  -0.000774   0.001023  -0.000056   0.000016
     83      -0.000048  -0.000269  -0.000387   0.000046   0.000027   0.000058
     84      -0.000210  -0.000212  -0.003524   0.006234  -0.001118  -0.811565
     85      -0.000034  -0.000138  -0.000761   0.001429  -0.000158  -0.102040
     86       0.000180   0.000249   0.003176  -0.006260   0.000877   0.571758
     87      -0.003317   0.007226  -0.201704   0.850849  -0.004083   0.007819
     88       0.000345  -0.001131   0.021286  -0.103725   0.000745  -0.000281
     89      -0.001752   0.004163  -0.104972   0.449366  -0.002224   0.004120


-----------
IR SPECTRUM
-----------

 Mode   freq       eps      Int      T**2         TX        TY        TZ
       cm**-1   L/(mol*cm) km/mol    a.u.
----------------------------------------------------------------------------
  6:     19.80   0.000042    0.21  0.000658  ( 0.017897 -0.003383 -0.018067)
  7:     33.33   0.001561    7.89  0.014616  (-0.030153 -0.059952  0.100562)
  8:     47.45   0.000537    2.71  0.003529  ( 0.028939  0.039694  0.033407)
  9:     63.54   0.002434   12.30  0.011952  (-0.036279  0.099929  0.025493)
 10:     65.48   0.000411    2.08  0.001958  ( 0.007913 -0.038291  0.020725)
 11:     92.18   0.009096   45.97  0.030791  ( 0.000780 -0.163356 -0.064069)
 12:    109.48   0.002197   11.10  0.006262  (-0.015420 -0.076086 -0.015337)
 13:    130.67   0.000835    4.22  0.001994  ( 0.041682  0.015217  0.005035)
 14:    132.46   0.003449   17.43  0.008125  (-0.025407  0.086245  0.006422)
 15:    171.69   0.005765   29.13  0.010479  (-0.021414 -0.089541 -0.044749)
 16:    193.34   0.003495   17.66  0.005641  (-0.070647  0.025403 -0.002156)
 17:    198.10   0.000263    1.33  0.000415  ( 0.006285  0.012126  0.015099)
 18:    231.98   0.002310   11.67  0.003108  ( 0.052617 -0.017726  0.004998)
 19:    261.10   0.001213    6.13  0.001450  (-0.006204 -0.011534 -0.035752)
 20:    274.02   0.005962   30.13  0.006790  ( 0.068245  0.045836 -0.005637)
 21:    279.13   0.008009   40.47  0.008954  ( 0.034147 -0.088156 -0.004039)
 22:    287.89   0.005294   26.75  0.005738  ( 0.004348 -0.061766  0.043639)
 23:    303.96   0.002833   14.32  0.002908  ( 0.016293  0.050874  0.007397)
 24:    322.34   0.001524    7.70  0.001475  (-0.014796 -0.031607  0.016039)
 25:    327.86   0.005466   27.62  0.005202  (-0.051540  0.033201 -0.037996)
 26:    347.08   0.007381   37.30  0.006636  ( 0.001766  0.075091  0.031536)
 27:    367.53   0.014550   73.53  0.012354  ( 0.040400  0.036503 -0.096899)
 28:    379.42   0.009837   49.71  0.008090  (-0.088333  0.016915 -0.001238)
 29:    404.81   0.039936  201.82  0.030786  ( 0.166211  0.046279 -0.031909)
 30:    415.72   0.006811   34.42  0.005113  (-0.004978 -0.067450  0.023209)
 31:    425.52   0.021030  106.28  0.015423  (-0.019105  0.074414  0.097572)
 32:    445.65   0.002455   12.41  0.001719  (-0.019228  0.036707  0.001419)
 33:    454.75   0.010010   50.59  0.006869  (-0.028159  0.077608 -0.007294)
 34:    490.60   0.014979   75.70  0.009528  (-0.007771 -0.090010 -0.036957)
 35:    521.09   0.001688    8.53  0.001011  ( 0.020396  0.017816  0.016656)
 36:    552.16   0.024601  124.32  0.013904  (-0.102478 -0.044261 -0.037985)
 37:    581.01   0.008393   42.42  0.004508  ( 0.044405  0.048198 -0.014600)
 38:    625.28   0.022278  112.59  0.011119  (-0.029045  0.020666 -0.099237)
 39:    677.75   0.021358  107.94  0.009834  (-0.029829 -0.047440  0.081816)
 40:    704.75   0.011727   59.27  0.005193  ( 0.008691  0.071274 -0.006112)
 41:    734.91   0.023721  119.88  0.010073  ( 0.062861 -0.047019 -0.062532)
 42:    805.40   0.002209   11.16  0.000856  ( 0.001967 -0.005732  0.028622)
 43:    815.63   0.029631  149.74  0.011337  ( 0.051269 -0.078582 -0.050334)
 44:    836.55   0.008292   41.90  0.003093  (-0.040436  0.035565 -0.013898)
 45:    861.65   0.086712  438.21  0.031404  (-0.153045 -0.070698 -0.054619)
 46:    893.59   0.023564  119.08  0.008229  (-0.032050  0.071441  0.045807)
 47:    898.97   0.001071    5.41  0.000372  ( 0.003887  0.018662 -0.002892)
 48:    924.89   0.010671   53.93  0.003600  ( 0.018108 -0.050361  0.027134)
 49:    937.74   0.069752  352.50  0.023212  (-0.068497  0.116203 -0.070832)
 50:    953.61   0.001862    9.41  0.000609  (-0.007227  0.016939  0.016440)
 51:   1009.93   0.002613   13.21  0.000807  ( 0.024840 -0.011695 -0.007327)
 52:   1027.75   0.008458   42.75  0.002568  ( 0.015248 -0.021931 -0.043068)
 53:   1076.24   0.032335  163.41  0.009376  ( 0.005084  0.093080  0.026194)
 54:   1103.75   0.008794   44.44  0.002486  (-0.049847 -0.000811 -0.001012)
 55:   1113.07   0.043185  218.24  0.012108  ( 0.070580 -0.044290  0.071864)
 56:   1117.98   0.022590  114.16  0.006306  (-0.072201 -0.020459  0.025961)
 57:   1128.79   0.034190  172.78  0.009452  (-0.024771 -0.045697 -0.082160)
 58:   1139.40   0.024306  122.83  0.006657  ( 0.046862 -0.066458 -0.006659)
 59:   1161.15   0.007769   39.26  0.002088  (-0.015723  0.010303  0.041647)
 60:   1176.75   0.007885   39.85  0.002091  (-0.029071 -0.028599  0.020690)
 61:   1191.03   0.013420   67.82  0.003516  ( 0.047744 -0.004542  0.034870)
 62:   1215.95   0.002369   11.97  0.000608  (-0.022512 -0.004594 -0.008954)
 63:   1226.21   0.018700   94.50  0.004759  ( 0.059054 -0.029368  0.020228)
 64:   1241.50   0.009976   50.42  0.002508  (-0.021765  0.040979  0.018833)
 65:   1260.41   0.007552   38.16  0.001870  ( 0.041407  0.002646 -0.012174)
 66:   1264.91   0.076109  384.62  0.018777  ( 0.015488  0.052059 -0.125804)
 67:   1265.18   0.007412   37.46  0.001828  (-0.029006 -0.029199 -0.011593)
 68:   1284.89   0.012922   65.30  0.003138  (-0.017189  0.018557  0.049985)
 69:   1293.09   0.004198   21.22  0.001013  ( 0.016355  0.009646  0.025546)
 70:   1320.17   0.003092   15.63  0.000731  ( 0.000320 -0.021059 -0.016952)
 71:   1327.97   0.004761   24.06  0.001119  (-0.025395  0.020716 -0.006691)
 72:   1331.08   0.006385   32.27  0.001497  (-0.023896  0.029984 -0.005183)
 73:   1345.14   0.015331   77.48  0.003557  ( 0.012193  0.057727 -0.008700)
 74:   1356.92   0.029648  149.83  0.006818  (-0.005482 -0.002262  0.082360)
 75:   1449.41   0.001149    5.81  0.000247  ( 0.002926  0.007797  0.013344)
 76:   1805.07   0.071352  360.59  0.012336  (-0.003326  0.096352  0.055143)
 77:   2820.21   0.000929    4.69  0.000103  ( 0.001799 -0.002057 -0.009762)
 78:   2889.80   0.020763  104.93  0.002242  ( 0.000535 -0.042312  0.021251)
 79:   2937.56   0.001706    8.62  0.000181  ( 0.000818  0.010633  0.008217)
 80:   2948.48   0.004289   21.67  0.000454  (-0.001094  0.004379 -0.020822)
 81:   2959.88   0.000847    4.28  0.000089  ( 0.002541 -0.003698 -0.008314)
 82:   2972.32   0.003323   16.79  0.000349  ( 0.000258  0.003539 -0.018339)
 83:   3435.65   0.030643  154.86  0.002783  (-0.048085  0.020125  0.008136)
 84:   3440.38   0.015533   78.50  0.001409  (-0.025628  0.026299 -0.007781)
 85:   3476.68   0.004285   21.65  0.000385  (-0.000508 -0.015531  0.011964)
 86:   3486.27   0.016455   83.16  0.001473  (-0.021966 -0.015481 -0.027400)
 87:   3507.39   0.036558  184.75  0.003253  ( 0.054321 -0.010336  0.013966)
 88:   3532.65   0.007874   39.79  0.000696  (-0.024847 -0.008779 -0.001084)
 89:   3634.92   0.009653   48.78  0.000829  (-0.024899 -0.005040  0.013540)

* The epsilon (eps) is given for a Dirac delta lineshape.
** The dipole moment derivative (T) already includes vibrational overlap.

The first frequency considered to be a vibration is 6
The total number of vibrations considered is 84


--------------------------
THERMOCHEMISTRY AT 298.15K
--------------------------

Temperature         ... 298.15 K
Pressure            ... 1.00 atm
Total Mass          ... 276.13 AMU

Throughout the following assumptions are being made:
  (1) The electronic state is orbitally nondegenerate
  (2) There are no thermally accessible electronically excited states
  (3) Hindered rotations indicated by low frequency modes are not
      treated as such but are treated as vibrations and this may
      cause some error
  (4) All equations used are the standard statistical mechanics
      equations for an ideal gas
  (5) All vibrations are strictly harmonic

freq.      19.80  E(vib)   ...       0.56 
freq.      33.33  E(vib)   ...       0.55 
freq.      47.45  E(vib)   ...       0.53 
freq.      63.54  E(vib)   ...       0.51 
freq.      65.48  E(vib)   ...       0.50 
freq.      92.18  E(vib)   ...       0.47 
freq.     109.48  E(vib)   ...       0.45 
freq.     130.67  E(vib)   ...       0.43 
freq.     132.46  E(vib)   ...       0.42 
freq.     171.69  E(vib)   ...       0.38 
freq.     193.34  E(vib)   ...       0.36 
freq.     198.10  E(vib)   ...       0.35 
freq.     231.98  E(vib)   ...       0.32 
freq.     261.10  E(vib)   ...       0.30 
freq.     274.02  E(vib)   ...       0.28 
freq.     279.13  E(vib)   ...       0.28 
freq.     287.89  E(vib)   ...       0.27 
freq.     303.96  E(vib)   ...       0.26 
freq.     322.34  E(vib)   ...       0.25 
freq.     327.86  E(vib)   ...       0.24 
freq.     347.08  E(vib)   ...       0.23 
freq.     367.53  E(vib)   ...       0.21 
freq.     379.42  E(vib)   ...       0.21 
freq.     404.81  E(vib)   ...       0.19 
freq.     415.72  E(vib)   ...       0.18 
freq.     425.52  E(vib)   ...       0.18 
freq.     445.65  E(vib)   ...       0.17 
freq.     454.75  E(vib)   ...       0.16 
freq.     490.60  E(vib)   ...       0.15 
freq.     521.09  E(vib)   ...       0.13 
freq.     552.16  E(vib)   ...       0.12 
freq.     581.01  E(vib)   ...       0.11 
freq.     625.28  E(vib)   ...       0.09 
freq.     677.75  E(vib)   ...       0.08 
freq.     704.75  E(vib)   ...       0.07 
freq.     734.91  E(vib)   ...       0.06 
freq.     805.40  E(vib)   ...       0.05 
freq.     815.63  E(vib)   ...       0.05 
freq.     836.55  E(vib)   ...       0.04 
freq.     861.65  E(vib)   ...       0.04 
freq.     893.59  E(vib)   ...       0.03 
freq.     898.97  E(vib)   ...       0.03 
freq.     924.89  E(vib)   ...       0.03 
freq.     937.74  E(vib)   ...       0.03 
freq.     953.61  E(vib)   ...       0.03 
freq.    1009.93  E(vib)   ...       0.02 
freq.    1027.75  E(vib)   ...       0.02 
freq.    1076.24  E(vib)   ...       0.02 
freq.    1103.75  E(vib)   ...       0.02 
freq.    1113.07  E(vib)   ...       0.01 
freq.    1117.98  E(vib)   ...       0.01 
freq.    1128.79  E(vib)   ...       0.01 
freq.    1139.40  E(vib)   ...       0.01 
freq.    1161.15  E(vib)   ...       0.01 
freq.    1176.75  E(vib)   ...       0.01 
freq.    1191.03  E(vib)   ...       0.01 
freq.    1215.95  E(vib)   ...       0.01 
freq.    1226.21  E(vib)   ...       0.01 
freq.    1241.50  E(vib)   ...       0.01 
freq.    1260.41  E(vib)   ...       0.01 
freq.    1264.91  E(vib)   ...       0.01 
freq.    1265.18  E(vib)   ...       0.01 
freq.    1284.89  E(vib)   ...       0.01 
freq.    1293.09  E(vib)   ...       0.01 
freq.    1320.17  E(vib)   ...       0.01 
freq.    1327.97  E(vib)   ...       0.01 
freq.    1331.08  E(vib)   ...       0.01 
freq.    1345.14  E(vib)   ...       0.01 
freq.    1356.92  E(vib)   ...       0.01 
freq.    1449.41  E(vib)   ...       0.00 
freq.    1805.07  E(vib)   ...       0.00 
freq.    2820.21  E(vib)   ...       0.00 
freq.    2889.80  E(vib)   ...       0.00 
freq.    2937.56  E(vib)   ...       0.00 
freq.    2948.48  E(vib)   ...       0.00 
freq.    2959.88  E(vib)   ...       0.00 
freq.    2972.32  E(vib)   ...       0.00 
freq.    3435.65  E(vib)   ...       0.00 
freq.    3440.38  E(vib)   ...       0.00 
freq.    3476.68  E(vib)   ...       0.00 
freq.    3486.27  E(vib)   ...       0.00 
freq.    3507.39  E(vib)   ...       0.00 
freq.    3532.65  E(vib)   ...       0.00 
freq.    3634.92  E(vib)   ...       0.00 

------------
INNER ENERGY
------------

The inner energy is: U= E(el) + E(ZPE) + E(vib) + E(rot) + E(trans)
    E(el)   - is the total energy from the electronic structure calculation
              = E(kin-el) + E(nuc-el) + E(el-el) + E(nuc-nuc)
    E(ZPE)  - the the zero temperature vibrational energy from the frequency calculation
    E(vib)  - the the finite temperature correction to E(ZPE) due to population
              of excited vibrational states
    E(rot)  - is the rotational thermal energy
    E(trans)- is the translational thermal energy

Summary of contributions to the inner energy U:
Electronic energy                ...    -62.81652166 Eh
Zero point energy                ...      0.21386935 Eh     134.20 kcal/mol
Thermal vibrational correction   ...      0.01698152 Eh      10.66 kcal/mol
Thermal rotational correction    ...      0.00141627 Eh       0.89 kcal/mol
Thermal translational correction ...      0.00141627 Eh       0.89 kcal/mol
-----------------------------------------------------------------------
Total thermal energy                    -62.58283825 Eh


Summary of corrections to the electronic energy:
(perhaps to be used in another calculation)
Total thermal correction                  0.01981406 Eh      12.43 kcal/mol
Non-thermal (ZPE) correction              0.21386935 Eh     134.20 kcal/mol
-----------------------------------------------------------------------
Total correction                          0.23368341 Eh     146.64 kcal/mol


--------
ENTHALPY
--------

The enthalpy is H = U + kB*T
                kB is Boltzmann's constant
Total free energy                 ...    -62.58283825 Eh 
Thermal Enthalpy correction       ...      0.00094421 Eh       0.59 kcal/mol
-----------------------------------------------------------------------
Total Enthalpy                    ...    -62.58189404 Eh


Note: Only C1 symmetry has been detected, increase convergence thresholds 
      if your molecule has a higher symmetry. Symmetry factor of 1.0 is   
      used for the rotational entropy correction. 
 

Note: Rotational entropy computed according to Herzberg 
Infrared and Raman Spectra, Chapter V,1, Van Nostrand Reinhold, 1945 
Point Group:  C1, Symmetry Number:   1  
Rotational constants in cm-1:     0.024785     0.008804     0.007260 

Vibrational entropy computed according to the QRRHO of S. Grimme
Chem.Eur.J. 2012 18 9955


-------
ENTROPY
-------

The entropy contributions are T*S = T*(S(el)+S(vib)+S(rot)+S(trans))
     S(el)   - electronic entropy
     S(vib)  - vibrational entropy
     S(rot)  - rotational entropy
     S(trans)- translational entropy
The entropies will be listed as multiplied by the temperature to get
units of energy

Electronic entropy                ...      0.00000000 Eh      0.00 kcal/mol
Vibrational entropy               ...      0.03018499 Eh     18.94 kcal/mol
Rotational entropy                ...      0.01581578 Eh      9.92 kcal/mol
Translational entropy             ...      0.02030977 Eh     12.74 kcal/mol
-----------------------------------------------------------------------
Final entropy term                ...      0.06631054 Eh     41.61 kcal/mol

In case the symmetry of your molecule has not been determined correctly
or in case you have a reason to use a different symmetry number we print 
out the resulting rotational entropy values for sn=1,12 :
 --------------------------------------------------------
|  sn= 1 | S(rot)=       0.01581578 Eh      9.92 kcal/mol|
|  sn= 2 | S(rot)=       0.01516133 Eh      9.51 kcal/mol|
|  sn= 3 | S(rot)=       0.01477850 Eh      9.27 kcal/mol|
|  sn= 4 | S(rot)=       0.01450687 Eh      9.10 kcal/mol|
|  sn= 5 | S(rot)=       0.01429618 Eh      8.97 kcal/mol|
|  sn= 6 | S(rot)=       0.01412404 Eh      8.86 kcal/mol|
|  sn= 7 | S(rot)=       0.01397849 Eh      8.77 kcal/mol|
|  sn= 8 | S(rot)=       0.01385242 Eh      8.69 kcal/mol|
|  sn= 9 | S(rot)=       0.01374121 Eh      8.62 kcal/mol|
|  sn=10 | S(rot)=       0.01364173 Eh      8.56 kcal/mol|
|  sn=11 | S(rot)=       0.01355174 Eh      8.50 kcal/mol|
|  sn=12 | S(rot)=       0.01346958 Eh      8.45 kcal/mol|
 --------------------------------------------------------


-------------------
GIBBS FREE ENERGY
-------------------

The Gibbs free energy is G = H - T*S

Total enthalpy                    ...    -62.58189404 Eh 
Total entropy correction          ...     -0.06631054 Eh    -41.61 kcal/mol
-----------------------------------------------------------------------
Final Gibbs free energy         ...    -62.64820459 Eh

For completeness - the Gibbs free energy minus the electronic energy
G-E(el)                           ...      0.16831708 Eh    105.62 kcal/mol



Timings for individual modules:

Sum of individual times         ...      442.326 sec (=   7.372 min)
Geometry relaxation             ...        1.718 sec (=   0.029 min)   0.4 %
Numerical frequency calculation ...      439.169 sec (=   7.319 min)  99.3 %
XTB module                      ...        1.438 sec (=   0.024 min)   0.3 %
                             ****ORCA TERMINATED NORMALLY****
TOTAL RUN TIME: 0 days 0 hours 7 minutes 23 seconds 720 msec
