
                                 *****************
                                 * O   R   C   A *
                                 *****************

                                            #,                                       
                                            ###                                      
                                            ####                                     
                                            #####                                    
                                            ######                                   
                                           ########,                                 
                                     ,,################,,,,,                         
                               ,,#################################,,                 
                          ,,##########################################,,             
                       ,#########################################, ''#####,          
                    ,#############################################,,   '####,        
                  ,##################################################,,,,####,       
                ,###########''''           ''''###############################       
              ,#####''   ,,,,##########,,,,          '''####'''          '####       
            ,##' ,,,,###########################,,,                        '##       
           ' ,,###''''                  '''############,,,                           
         ,,##''                                '''############,,,,        ,,,,,,###''
      ,#''                                            '''#######################'''  
     '                                                          ''''####''''         
             ,#######,   #######,   ,#######,      ##                                
            ,#'     '#,  ##    ##  ,#'     '#,    #''#        ######   ,####,        
            ##       ##  ##   ,#'  ##            #'  '#       #        #'  '#        
            ##       ##  #######   ##           ,######,      #####,   #    #        
            '#,     ,#'  ##    ##  '#,     ,#' ,#      #,         ##   #,  ,#        
             '#######'   ##     ##  '#######'  #'      '#     #####' # '####'        



                  #######################################################
                  #                        -***-                        #
                  #          Department of theory and spectroscopy      #
                  #    Directorship and core code : Frank Neese         #
                  #        Max Planck Institute fuer Kohlenforschung    #
                  #                Kaiser Wilhelm Platz 1               #
                  #                 D-45470 Muelheim/Ruhr               #
                  #                      Germany                        #
                  #                                                     #
                  #                  All rights reserved                #
                  #                        -***-                        #
                  #######################################################


                         Program Version 5.0.3 -  RELEASE  -


 With contributions from (in alphabetic order):
   Daniel Aravena         : Magnetic Suceptibility
   Michael Atanasov       : Ab Initio Ligand Field Theory (pilot matlab implementation)
   Alexander A. Auer      : GIAO ZORA, VPT2 properties, NMR spectrum
   Ute Becker             : Parallelization
   Giovanni Bistoni       : ED, misc. LED, open-shell LED, HFLD
   Martin Brehm           : Molecular dynamics
   Dmytro Bykov           : SCF Hessian
   Vijay G. Chilkuri      : MRCI spin determinant printing, contributions to CSF-ICE
   Dipayan Datta          : RHF DLPNO-CCSD density
   Achintya Kumar Dutta   : EOM-CC, STEOM-CC
   Dmitry Ganyushin       : Spin-Orbit,Spin-Spin,Magnetic field MRCI
   Miquel Garcia          : C-PCM and meta-GGA Hessian, CC/C-PCM, Gaussian charge scheme
   Yang Guo               : DLPNO-NEVPT2, F12-NEVPT2, CIM, IAO-localization
   Andreas Hansen         : Spin unrestricted coupled pair/coupled cluster methods
   Benjamin Helmich-Paris : MC-RPA, TRAH-SCF, COSX integrals
   Lee Huntington         : MR-EOM, pCC
   Robert Izsak           : Overlap fitted RIJCOSX, COSX-SCS-MP3, EOM
   Marcus Kettner         : VPT2
   Christian Kollmar      : KDIIS, OOCD, Brueckner-CCSD(T), CCSD density, CASPT2, CASPT2-K
   Simone Kossmann        : Meta GGA functionals, TD-DFT gradient, OOMP2, MP2 Hessian
   Martin Krupicka        : Initial AUTO-CI
   Lucas Lang             : DCDCAS
   Marvin Lechner         : AUTO-CI (C++ implementation), FIC-MRCC
   Dagmar Lenk            : GEPOL surface, SMD
   Dimitrios Liakos       : Extrapolation schemes; Compound Job, initial MDCI parallelization
   Dimitrios Manganas     : Further ROCIS development; embedding schemes
   Dimitrios Pantazis     : SARC Basis sets
   Anastasios Papadopoulos: AUTO-CI, single reference methods and gradients
   Taras Petrenko         : DFT Hessian,TD-DFT gradient, ASA, ECA, R-Raman, ABS, FL, XAS/XES, NRVS
   Peter Pinski           : DLPNO-MP2, DLPNO-MP2 Gradient
   Christoph Reimann      : Effective Core Potentials
   Marius Retegan         : Local ZFS, SOC
   Christoph Riplinger    : Optimizer, TS searches, QM/MM, DLPNO-CCSD(T), (RO)-DLPNO pert. Triples
   Tobias Risthaus        : Range-separated hybrids, TD-DFT gradient, RPA, STAB
   Michael Roemelt        : Original ROCIS implementation
   Masaaki Saitow         : Open-shell DLPNO-CCSD energy and density
   Barbara Sandhoefer     : DKH picture change effects
   Avijit Sen             : IP-ROCIS
   Kantharuban Sivalingam : CASSCF convergence, NEVPT2, FIC-MRCI
   Bernardo de Souza      : ESD, SOC TD-DFT
   Georgi Stoychev        : AutoAux, RI-MP2 NMR, DLPNO-MP2 response
   Willem Van den Heuvel  : Paramagnetic NMR
   Boris Wezisla          : Elementary symmetry handling
   Frank Wennmohs         : Technical directorship


 We gratefully acknowledge several colleagues who have allowed us to
 interface, adapt or use parts of their codes:
   Stefan Grimme, W. Hujo, H. Kruse, P. Pracht,  : VdW corrections, initial TS optimization,
                  C. Bannwarth, S. Ehlert          DFT functionals, gCP, sTDA/sTD-DF
   Ed Valeev, F. Pavosevic, A. Kumar             : LibInt (2-el integral package), F12 methods
   Garnet Chan, S. Sharma, J. Yang, R. Olivares  : DMRG
   Ulf Ekstrom                                   : XCFun DFT Library
   Mihaly Kallay                                 : mrcc  (arbitrary order and MRCC methods)
   Jiri Pittner, Ondrej Demel                    : Mk-CCSD
   Frank Weinhold                                : gennbo (NPA and NBO analysis)
   Christopher J. Cramer and Donald G. Truhlar   : smd solvation model
   Lars Goerigk                                  : TD-DFT with DH, B97 family of functionals
   V. Asgeirsson, H. Jonsson                     : NEB implementation
   FAccTs GmbH                                   : IRC, NEB, NEB-TS, DLPNO-Multilevel, CI-OPT
                                                   MM, QMMM, 2- and 3-layer-ONIOM, Crystal-QMMM,
                                                   LR-CPCM, SF, NACMEs, symmetry and pop. for TD-DFT,
                                                   nearIR, NL-DFT gradient (VV10), updates on ESD,
                                                   ML-optimized integration grids
   S Lehtola, MJT Oliveira, MAL Marques          : LibXC Library
   Liviu Ungur et al                             : ANISO software


 Your calculation uses the libint2 library for the computation of 2-el integrals
 For citations please refer to: http://libint.valeyev.net

 Your ORCA version has been built with support for libXC version: 5.1.0
 For citations please refer to: https://tddft.org/programs/libxc/

 This ORCA versions uses:
   CBLAS   interface :  Fast vector & matrix operations
   LAPACKE interface :  Fast linear algebra routines
   SCALAPACK package :  Parallel linear algebra routines
   Shared memory     :  Shared parallel matrices
   BLAS/LAPACK       :  OpenBLAS 0.3.15  USE64BITINT DYNAMIC_ARCH NO_AFFINITY Haswell SINGLE_THREADED
        Core in use  :  Haswell
   Copyright (c) 2011-2014, The OpenBLAS Project


Your calculation utilizes the semiempirical GFN2-xTB method
Please cite in your paper:
C. Bannwarth, Ehlert S., S. Grimme,  J. Chem. Theory Comput., 15, (2019), 1652.
   

================================================================================

================================================================================
                                        WARNINGS
                       Please study these warnings very carefully!
================================================================================


WARNING: Geometry Optimization
  ===> : Switching off AutoStart
         For restart on a previous wavefunction, please use MOREAD

WARNING: Found dipole moment calculation with XTB calculation
  ===> : Switching off dipole moment calculation


WARNING: TRAH-SCF for XTB is not implemented!
  ===> : Turning TRAH off!

================================================================================
                                       INPUT FILE
================================================================================
NAME = /tmp/C00668.inp
|  1> ! XTB2 opt numfreq
|  2> * XYZ 0 1
|  3> O -3.0471 0.6683 -1.9405
|  4> P -3.5053 -0.0086 -0.6976
|  5> O -4.2932 -1.3796 -0.8870
|  6> O -4.5953 0.8537 0.0900
|  7> O -2.4024 -0.3437 0.4093
|  8> C -1.4030 0.6280 0.6489
|  9> C -0.1636 0.4294 -0.2393
| 10> O 0.7924 1.4748 0.0403
| 11> C 1.7736 1.1006 0.9918
| 12> O 2.5834 2.2349 1.2686
| 13> C 2.6808 -0.0256 0.4499
| 14> O 3.8038 0.5026 -0.2818
| 15> C 1.9086 -0.9534 -0.4901
| 16> O 2.4505 -2.2832 -0.4303
| 17> C 0.4292 -0.9929 -0.1115
| 18> O -0.2587 -1.9174 -0.9567
| 19> H -4.5265 -1.7690 -0.0266
| 20> H -5.1528 1.3336 -0.5514
| 21> H -1.1215 0.5610 1.7056
| 22> H -1.8085 1.6384 0.5147
| 23> H -0.4748 0.5750 -1.2802
| 24> H 1.2851 0.7894 1.9226
| 25> H 1.9547 2.9244 1.5444
| 26> H 3.1176 -0.5722 1.2933
| 27> H 3.9081 1.4198 0.0522
| 28> H 2.0128 -0.6376 -1.5362
| 29> H 3.3870 -2.1914 -0.6968
| 30> H 0.3256 -1.3717 0.9130
| 31> H 0.3396 -2.6876 -1.0410
| 32> *
| 33> 
| 34>                          ****END OF INPUT****
================================================================================

                       *****************************
                       * Geometry Optimization Run *
                       *****************************

Geometry optimization settings:
Update method            Update   .... BFGS
Choice of coordinates    CoordSys .... Z-matrix Internals
Initial Hessian          InHess   .... Almoef's Model

Convergence Tolerances:
Energy Change            TolE     ....  5.0000e-06 Eh
Max. Gradient            TolMAXG  ....  3.0000e-04 Eh/bohr
RMS Gradient             TolRMSG  ....  1.0000e-04 Eh/bohr
Max. Displacement        TolMAXD  ....  4.0000e-03 bohr
RMS Displacement         TolRMSD  ....  2.0000e-03 bohr
Strict Convergence                ....  False
------------------------------------------------------------------------------
                        ORCA OPTIMIZATION COORDINATE SETUP
------------------------------------------------------------------------------

The optimization will be done in new redundant internal coordinates
Making redundant internal coordinates   ...  (new redundants) done
Evaluating the initial hessian          ...  (Almloef) done
Evaluating the coordinates              ...  done
Calculating the B-matrix                .... done
Calculating the G-matrix                .... done
Diagonalizing the G-matrix              .... done
Small eigenvalue found = 9.525e-03
Small eigenvalue found = 1.300e-02
Small eigenvalue found = 2.278e-02
The first mode is                       ....   73
The number of degrees of freedom        ....   81

    -----------------------------------------------------------------
                    Redundant Internal Coordinates


    -----------------------------------------------------------------
         Definition                    Initial Value    Approx d2E/dq
    -----------------------------------------------------------------
      1. B(P   1,O   0)                  1.4876         1.314200   
      2. B(O   2,P   1)                  1.5926         0.893659   
      3. B(O   3,P   1)                  1.5975         0.877671   
      4. B(O   4,P   1)                  1.5981         0.875723   
      5. B(C   5,O   4)                  1.4144         0.511698   
      6. B(C   6,C   5)                  1.5377         0.363185   
      7. B(O   7,C   6)                  1.4439         0.458999   
      8. B(C   8,O   7)                  1.4171         0.506597   
      9. B(O   9,C   8)                  1.4209         0.499499   
     10. B(C  10,C   8)                  1.5443         0.354401   
     11. B(O  11,C  10)                  1.4407         0.464565   
     12. B(C  12,C  10)                  1.5299         0.373662   
     13. B(O  13,C  12)                  1.4372         0.470479   
     14. B(C  14,C  12)                  1.5276         0.376901   
     15. B(C  14,C   6)                  1.5462         0.352013   
     16. B(O  15,C  14)                  1.4291         0.484759   
     17. B(H  16,O   2)                  0.9728         0.496064   
     18. B(H  17,O   3)                  0.9760         0.490341   
     19. B(H  18,C   5)                  1.0956         0.352764   
     20. B(H  19,C   5)                  1.0970         0.350994   
     21. B(H  20,C   6)                  1.0961         0.352072   
     22. B(H  21,C   8)                  1.0963         0.351866   
     23. B(H  22,O   9)                  0.9730         0.495698   
     24. B(H  23,C  10)                  1.0959         0.352442   
     25. B(H  24,O  11)                  0.9817         0.480156   
     26. B(H  25,C  12)                  1.0977         0.350076   
     27. B(H  26,O  13)                  0.9780         0.486688   
     28. B(H  27,C  14)                  1.0972         0.350715   
     29. B(H  28,O  15)                  0.9789         0.485050   
     30. A(O   2,P   1,O   3)          100.7049         0.559905   
     31. A(O   0,P   1,O   4)          117.4870         0.602599   
     32. A(O   3,P   1,O   4)          104.0396         0.557749   
     33. A(O   2,P   1,O   4)          104.0809         0.559668   
     34. A(O   0,P   1,O   2)          116.4068         0.604961   
     35. A(O   0,P   1,O   3)          112.1153         0.602857   
     36. A(P   1,O   2,H  16)          110.9809         0.417286   
     37. A(P   1,O   3,H  17)          109.3399         0.415090   
     38. A(P   1,O   4,C   5)          117.4473         0.470814   
     39. A(C   6,C   5,H  18)          110.0061         0.321734   
     40. A(H  18,C   5,H  19)          105.6225         0.288740   
     41. A(O   4,C   5,C   6)          112.5169         0.379317   
     42. A(O   4,C   5,H  19)          110.5412         0.338159   
     43. A(C   6,C   5,H  19)          110.2579         0.321470   
     44. A(O   4,C   5,H  18)          107.6337         0.338443   
     45. A(C  14,C   6,H  20)          108.0307         0.319992   
     46. A(O   7,C   6,C  14)          113.3371         0.370266   
     47. A(C   5,C   6,O   7)          109.1650         0.372262   
     48. A(C   5,C   6,C  14)          112.3392         0.357962   
     49. A(O   7,C   6,H  20)          106.0024         0.332273   
     50. A(C   5,C   6,H  20)          107.6094         0.321631   
     51. A(C   6,O   7,C   8)          113.4072         0.391910   
     52. A(O   9,C   8,C  10)          108.4038         0.376140   
     53. A(O   7,C   8,C  10)          111.3278         0.377059   
     54. A(C  10,C   8,H  21)          110.6508         0.320315   
     55. A(O   9,C   8,H  21)          108.3702         0.336941   
     56. A(O   7,C   8,H  21)          109.6647         0.337734   
     57. A(O   7,C   8,O   9)          108.3374         0.397763   
     58. A(C   8,O   9,H  22)          104.6350         0.353817   
     59. A(C   8,C  10,C  12)          111.1820         0.360113   
     60. A(C   8,C  10,O  11)          111.6389         0.371466   
     61. A(C  12,C  10,H  23)          111.8121         0.323189   
     62. A(O  11,C  10,H  23)          105.2516         0.332996   
     63. A(C   8,C  10,H  23)          109.1370         0.320401   
     64. A(O  11,C  10,C  12)          107.6815         0.374870   
     65. A(C  10,O  11,H  24)          104.6299         0.347635   
     66. A(C  14,C  12,H  25)          109.6070         0.323289   
     67. A(O  13,C  12,H  25)          105.6675         0.333323   
     68. A(C  10,C  12,H  25)          111.2938         0.322832   
     69. A(O  13,C  12,C  14)          109.3244         0.376250   
     70. A(C  10,C  12,C  14)          110.6226         0.363917   
     71. A(C  10,C  12,O  13)          110.1961         0.375690   
     72. A(C  12,O  13,H  26)          105.2399         0.349171   
     73. A(O  15,C  14,H  27)          106.4662         0.335083   
     74. A(C  12,C  14,H  27)          109.3777         0.323386   
     75. A(C  12,C  14,O  15)          109.6529         0.378201   
     76. A(C   6,C  14,H  27)          111.0119         0.319790   
     77. A(C   6,C  14,O  15)          111.2017         0.373764   
     78. A(C   6,C  14,C  12)          109.0886         0.360228   
     79. A(C  14,O  15,H  28)          105.4098         0.350738   
     80. D(H  16,O   2,P   1,O   3)    -60.6177         0.013789   
     81. D(H  16,O   2,P   1,O   0)    177.9398         0.013789   
     82. D(H  16,O   2,P   1,O   4)     46.9573         0.013789   
     83. D(H  17,O   3,P   1,O   4)    162.3290         0.013322   
     84. D(H  17,O   3,P   1,O   2)    -90.0634         0.013322   
     85. D(H  17,O   3,P   1,O   0)     34.3655         0.013322   
     86. D(C   5,O   4,P   1,O   3)    -84.3974         0.013266   
     87. D(C   5,O   4,P   1,O   2)    170.5251         0.013266   
     88. D(C   5,O   4,P   1,O   0)     40.1819         0.013266   
     89. D(H  18,C   5,O   4,P   1)    148.1705         0.020733   
     90. D(C   6,C   5,O   4,P   1)    -90.4713         0.020733   
     91. D(H  19,C   5,O   4,P   1)     33.2812         0.020733   
     92. D(O   7,C   6,C   5,H  19)     54.6979         0.010570   
     93. D(O   7,C   6,C   5,H  18)    -61.3974         0.010570   
     94. D(H  20,C   6,C   5,H  18)   -176.0121         0.010570   
     95. D(H  20,C   6,C   5,H  19)    -59.9169         0.010570   
     96. D(C  14,C   6,C   5,H  19)   -178.7016         0.010570   
     97. D(C  14,C   6,C   5,H  18)     65.2031         0.010570   
     98. D(C  14,C   6,C   5,O   4)    -54.7920         0.010570   
     99. D(O   7,C   6,C   5,O   4)    178.6076         0.010570   
    100. D(H  20,C   6,C   5,O   4)     63.9928         0.010570   
    101. D(C   8,O   7,C   6,H  20)   -149.4576         0.016597   
    102. D(C   8,O   7,C   6,C  14)    -31.1357         0.016597   
    103. D(C   8,O   7,C   6,C   5)     94.8930         0.016597   
    104. D(H  21,C   8,O   7,C   6)    -57.0677         0.020307   
    105. D(C  10,C   8,O   7,C   6)     65.7232         0.020307   
    106. D(O   9,C   8,O   7,C   6)   -175.1684         0.020307   
    107. D(H  22,O   9,C   8,H  21)    -63.6861         0.019724   
    108. D(H  22,O   9,C   8,C  10)    176.1728         0.019724   
    109. D(H  22,O   9,C   8,O   7)     55.2359         0.019724   
    110. D(O  11,C  10,C   8,O   7)     87.8673         0.010100   
    111. D(H  23,C  10,C   8,O   9)     84.7250         0.010100   
    112. D(H  23,C  10,C   8,O   7)   -156.2062         0.010100   
    113. D(C  12,C  10,C   8,H  21)     89.8146         0.010100   
    114. D(C  12,C  10,C   8,O   9)   -151.4770         0.010100   
    115. D(C  12,C  10,C   8,O   7)    -32.4083         0.010100   
    116. D(O  11,C  10,C   8,H  21)   -149.9098         0.010100   
    117. D(H  23,C  10,C   8,H  21)    -33.9833         0.010100   
    118. D(O  11,C  10,C   8,O   9)    -31.2015         0.010100   
    119. D(H  24,O  11,C  10,H  23)    -95.8647         0.017006   
    120. D(H  24,O  11,C  10,C  12)    144.7195         0.017006   
    121. D(H  24,O  11,C  10,C   8)     22.4118         0.017006   
    122. D(H  25,C  12,C  10,H  23)   -144.4955         0.011149   
    123. D(H  25,C  12,C  10,O  11)    -29.3464         0.011149   
    124. D(H  25,C  12,C  10,C   8)     93.2431         0.011149   
    125. D(C  14,C  12,C  10,H  23)     93.3984         0.011149   
    126. D(C  14,C  12,C  10,O  11)   -151.4525         0.011149   
    127. D(C  14,C  12,C  10,C   8)    -28.8631         0.011149   
    128. D(O  13,C  12,C  10,H  23)    -27.6103         0.011149   
    129. D(O  13,C  12,C  10,O  11)     87.5387         0.011149   
    130. D(O  13,C  12,C  10,C   8)   -149.8718         0.011149   
    131. D(H  26,O  13,C  12,H  25)     61.1269         0.017448   
    132. D(H  26,O  13,C  12,C  14)    179.0106         0.017448   
    133. D(H  26,O  13,C  12,C  10)    -59.2075         0.017448   
    134. D(H  27,C  14,C   6,O   7)     89.3062         0.009974   
    135. D(H  27,C  14,C   6,C   5)    -35.0156         0.009974   
    136. D(O  15,C  14,C   6,H  20)    -35.2141         0.009974   
    137. D(O  15,C  14,C   6,O   7)   -152.3552         0.009974   
    138. D(O  15,C  14,C   6,C   5)     83.3229         0.009974   
    139. D(C  12,C  14,C   6,H  20)     85.8480         0.009974   
    140. D(C  12,C  14,C   6,O   7)    -31.2931         0.009974   
    141. D(H  27,C  14,C   6,H  20)   -153.5527         0.009974   
    142. D(C  12,C  14,C   6,C   5)   -155.6149         0.009974   
    143. D(H  27,C  14,C  12,H  25)    176.3188         0.011332   
    144. D(H  27,C  14,C  12,C  10)    -60.5913         0.011332   
    145. D(O  15,C  14,C  12,H  25)     59.9170         0.011332   
    146. D(O  15,C  14,C  12,O  13)    -55.4687         0.011332   
    147. D(O  15,C  14,C  12,C  10)   -176.9932         0.011332   
    148. D(C   6,C  14,C  12,H  25)    -62.0853         0.011332   
    149. D(H  27,C  14,C  12,O  13)     60.9331         0.011332   
    150. D(C   6,C  14,C  12,O  13)   -177.4710         0.011332   
    151. D(C   6,C  14,C  12,C  10)     61.0046         0.011332   
    152. D(H  28,O  15,C  14,H  27)    -76.9451         0.018546   
    153. D(H  28,O  15,C  14,C  12)     41.2803         0.018546   
    154. D(H  28,O  15,C  14,C   6)    162.0109         0.018546   
    -----------------------------------------------------------------

Number of atoms                         .... 29
Number of degrees of freedom            .... 154

         *************************************************************
         *                GEOMETRY OPTIMIZATION CYCLE   1            *
         *************************************************************
---------------------------------
CARTESIAN COORDINATES (ANGSTROEM)
---------------------------------
  O    -3.047100    0.668300   -1.940500
  P    -3.505300   -0.008600   -0.697600
  O    -4.293200   -1.379600   -0.887000
  O    -4.595300    0.853700    0.090000
  O    -2.402400   -0.343700    0.409300
  C    -1.403000    0.628000    0.648900
  C    -0.163600    0.429400   -0.239300
  O     0.792400    1.474800    0.040300
  C     1.773600    1.100600    0.991800
  O     2.583400    2.234900    1.268600
  C     2.680800   -0.025600    0.449900
  O     3.803800    0.502600   -0.281800
  C     1.908600   -0.953400   -0.490100
  O     2.450500   -2.283200   -0.430300
  C     0.429200   -0.992900   -0.111500
  O    -0.258700   -1.917400   -0.956700
  H    -4.526500   -1.769000   -0.026600
  H    -5.152800    1.333600   -0.551400
  H    -1.121500    0.561000    1.705600
  H    -1.808500    1.638400    0.514700
  H    -0.474800    0.575000   -1.280200
  H     1.285100    0.789400    1.922600
  H     1.954700    2.924400    1.544400
  H     3.117600   -0.572200    1.293300
  H     3.908100    1.419800    0.052200
  H     2.012800   -0.637600   -1.536200
  H     3.387000   -2.191400   -0.696800
  H     0.325600   -1.371700    0.913000
  H     0.339600   -2.687600   -1.041000

----------------------------
CARTESIAN COORDINATES (A.U.)
----------------------------
  NO LB    ZA    FRAG    MASS        X           Y           Z
   0 O   8.0000    0    15.999   -5.758185    1.262904   -3.667014
   1 P  15.0000    0    30.974   -6.624057   -0.016252   -1.318273
   2 O   8.0000    0    15.999   -8.112972   -2.607066   -1.676187
   3 O   8.0000    0    15.999   -8.683859    1.613259    0.170075
   4 O   8.0000    0    15.999   -4.539878   -0.649499    0.773465
   5 C   6.0000    0    12.011   -2.651286    1.186748    1.226243
   6 C   6.0000    0    12.011   -0.309159    0.811448   -0.452211
   7 O   8.0000    0    15.999    1.497419    2.786968    0.076156
   8 C   6.0000    0    12.011    3.351618    2.079833    1.874230
   9 O   8.0000    0    15.999    4.881918    4.223349    2.397307
  10 C   6.0000    0    12.011    5.065978   -0.048377    0.850188
  11 O   8.0000    0    15.999    7.188140    0.949776   -0.532525
  12 C   6.0000    0    12.011    3.606731   -1.801665   -0.926155
  13 O   8.0000    0    15.999    4.630774   -4.314623   -0.813149
  14 C   6.0000    0    12.011    0.811070   -1.876309   -0.210704
  15 O   8.0000    0    15.999   -0.488872   -3.623361   -1.807901
  16 H   1.0000    0     1.008   -8.553845   -3.342926   -0.050267
  17 H   1.0000    0     1.008   -9.737381    2.520139   -1.041995
  18 H   1.0000    0     1.008   -2.119328    1.060136    3.223117
  19 H   1.0000    0     1.008   -3.417570    3.096127    0.972642
  20 H   1.0000    0     1.008   -0.897242    1.086593   -2.419227
  21 H   1.0000    0     1.008    2.428487    1.491750    3.633187
  22 H   1.0000    0     1.008    3.693848    5.526315    2.918493
  23 H   1.0000    0     1.008    5.891410   -1.081301    2.443983
  24 H   1.0000    0     1.008    7.385239    2.683033    0.098644
  25 H   1.0000    0     1.008    3.803641   -1.204889   -2.902997
  26 H   1.0000    0     1.008    6.400502   -4.141146   -1.316761
  27 H   1.0000    0     1.008    0.615295   -2.592137    1.725320
  28 H   1.0000    0     1.008    0.641751   -5.078828   -1.967205

      -----------------------------------------------------------      
     |                   =====================                   |     
     |                           x T B                           |     
     |                   =====================                   |     
     |                         S. Grimme                         |     
     |          Mulliken Center for Theoretical Chemistry        |     
     |                    University of Bonn                     |     
      -----------------------------------------------------------      

   * xtb version 6.5.1 (579679a) compiled by 'ehlert@majestix' on 2022-07-11

   xtb is free software: you can redistribute it and/or modify it under
   the terms of the GNU Lesser General Public License as published by
   the Free Software Foundation, either version 3 of the License, or
   (at your option) any later version.
   
   xtb is distributed in the hope that it will be useful,
   but WITHOUT ANY WARRANTY; without even the implied warranty of
   MERCHANTABILITY or FITNESS FOR A PARTICULAR PURPOSE.  See the
   GNU Lesser General Public License for more details.
   
   Cite this work as:
   * C. Bannwarth, E. Caldeweyher, S. Ehlert, A. Hansen, P. Pracht,
     J. Seibert, S. Spicher, S. Grimme, WIREs Comput. Mol. Sci., 2020, 11,
     e01493. DOI: 10.1002/wcms.1493
   
   for GFN2-xTB:
   * C. Bannwarth, S. Ehlert and S. Grimme., J. Chem. Theory Comput., 2019,
     15, 1652-1671. DOI: 10.1021/acs.jctc.8b01176
   for GFN1-xTB:
   * S. Grimme, C. Bannwarth, P. Shushkov, J. Chem. Theory Comput., 2017,
     13, 1989-2009. DOI: 10.1021/acs.jctc.7b00118
   for GFN0-xTB:
   * P. Pracht, E. Caldeweyher, S. Ehlert, S. Grimme, ChemRxiv, 2019, preprint.
     DOI: 10.26434/chemrxiv.8326202.v1
   for GFN-FF:
   * S. Spicher and S. Grimme, Angew. Chem. Int. Ed., 2020, 59, 15665-15673.
     DOI: 10.1002/anie.202004239
   
   for ALPB and GBSA implicit solvation:
   * S. Ehlert, M. Stahn, S. Spicher, S. Grimme, J. Chem. Theory Comput.,
     2021, 17, 4250-4261. DOI: 10.1021/acs.jctc.1c00471
   
   for DFT-D4:
   * E. Caldeweyher, C. Bannwarth and S. Grimme, J. Chem. Phys., 2017,
     147, 034112. DOI: 10.1063/1.4993215
   * E. Caldeweyher, S. Ehlert, A. Hansen, H. Neugebauer, S. Spicher,
     C. Bannwarth and S. Grimme, J. Chem. Phys., 2019, 150, 154122.
     DOI: 10.1063/1.5090222
   * E. Caldeweyher, J.-M. Mewes, S. Ehlert and S. Grimme, Phys. Chem. Chem. Phys.
     2020, 22, 8499-8512. DOI: 10.1039/D0CP00502A
   
   for sTDA-xTB:
   * S. Grimme and C. Bannwarth, J. Chem. Phys., 2016, 145, 054103.
     DOI: 10.1063/1.4959605
   
   in the mass-spec context:
   * V. Asgeirsson, C. Bauer and S. Grimme, Chem. Sci., 2017, 8, 4879.
     DOI: 10.1039/c7sc00601b
   * J. Koopman and S. Grimme, ACS Omega 2019, 4, 12, 15120-15133.
     DOI: 10.1021/acsomega.9b02011
   
   for metadynamics refer to:
   * S. Grimme, J. Chem. Theory Comput., 2019, 155, 2847-2862
     DOI: 10.1021/acs.jctc.9b00143
   
   for SPH calculations refer to:
   * S. Spicher and S. Grimme, J. Chem. Theory Comput., 2021, 17, 1701-1714
     DOI: 10.1021/acs.jctc.0c01306
   
   with help from (in alphabetical order)
   P. Atkinson, C. Bannwarth, F. Bohle, G. Brandenburg, E. Caldeweyher
   M. Checinski, S. Dohm, S. Ehlert, S. Ehrlich, I. Gerasimov, C. Hölzer
   A. Katbashev, J. Koopman, C. Lavigne, S. Lehtola, F. März, M. Müller,
   F. Musil, H. Neugebauer, J. Pisarek, C. Plett, P. Pracht, F. Pultar,
   J. Seibert, P. Shushkov, S. Spicher, M. Stahn, M. Steiner, T. Strunk,
   J. Stückrath, T. Rose, and J. Unsleber
   
 * started run on 2023/12/04 at 14:23:03.751     

           -------------------------------------------------
          |                Calculation Setup                |
           -------------------------------------------------

          program call               : otool_xtb /tmp/C00668_XTB.xyz --grad -c 0 -u 0 -P 1 --namespace /tmp/C00668 --input /tmp/C00668_XTB.input.tmp --acc 1.000000
          calculation namespace      : /tmp/C00668
          coordinate file            : /tmp/C00668_XTB.xyz
          omp threads                :                     1

   ID    Z sym.   atoms
    1    8 O      1, 3-5, 8, 10, 12, 14, 16
    2   15 P      2
    3    6 C      6, 7, 9, 11, 13, 15
    4    1 H      17-29

           -------------------------------------------------
          |                 G F N 2 - x T B                 |
           -------------------------------------------------

        Reference                      10.1021/acs.jctc.8b01176
      * Hamiltonian:
        H0-scaling (s, p, d)           1.850000    2.230000    2.230000
        zeta-weighting                 0.500000
      * Dispersion:
        s8                             2.700000
        a1                             0.520000
        a2                             5.000000
        s9                             5.000000
      * Repulsion:
        kExp                           1.500000    1.000000
        rExp                           1.000000
      * Coulomb:
        alpha                          2.000000
        third order                    shell-resolved
        anisotropic                    true
        a3                             3.000000
        a5                             4.000000
        cn-shift                       1.200000
        cn-exp                         4.000000
        max-rad                        5.000000


          ...................................................
          :                      SETUP                      :
          :.................................................:
          :  # basis functions                  83          :
          :  # atomic orbitals                  82          :
          :  # shells                           46          :
          :  # electrons                        96          :
          :  max. iterations                   250          :
          :  Hamiltonian                  GFN2-xTB          :
          :  restarted?                      false          :
          :  GBSA solvation                  false          :
          :  PC potential                    false          :
          :  electronic temp.          300.0000000     K    :
          :  accuracy                    1.0000000          :
          :  -> integral cutoff          0.2500000E+02      :
          :  -> integral neglect         0.1000000E-07      :
          :  -> SCF convergence          0.1000000E-05 Eh   :
          :  -> wf. convergence          0.1000000E-03 e    :
          :  Broyden damping             0.4000000          :
          ...................................................

 iter      E             dE          RMSdq      gap      omega  full diag
   1    -58.9980565 -0.589981E+02  0.631E+00    9.38       0.0  T
   2    -59.0746775 -0.766209E-01  0.359E+00    9.07       1.0  T
   3    -59.0871700 -0.124926E-01  0.925E-01    8.83       1.0  T
   4    -59.0898069 -0.263685E-02  0.421E-01    8.82       1.0  T
   5    -59.0902309 -0.423976E-03  0.133E-01    8.82       1.0  T
   6    -59.0903156 -0.847703E-04  0.635E-02    8.82       1.0  T
   7    -59.0903237 -0.809867E-05  0.214E-02    8.83       1.0  T
   8    -59.0903256 -0.186956E-05  0.900E-03    8.83       2.1  T
   9    -59.0903258 -0.151097E-06  0.262E-03    8.83       7.1  T
  10    -59.0903258 -0.378811E-07  0.108E-03    8.83      17.2  T
  11    -59.0903258 -0.222657E-08  0.352E-04    8.83      52.8  T
  12    -59.0903258 -0.521759E-09  0.129E-04    8.83     143.9  T

   *** convergence criteria satisfied after 12 iterations ***

         #    Occupation            Energy/Eh            Energy/eV
      -------------------------------------------------------------
         1        2.0000           -0.7463832             -20.3101
       ...           ...                  ...                  ...
        42        2.0000           -0.4543564             -12.3637
        43        2.0000           -0.4426437             -12.0449
        44        2.0000           -0.4360265             -11.8649
        45        2.0000           -0.4310231             -11.7287
        46        2.0000           -0.4251367             -11.5686
        47        2.0000           -0.4244845             -11.5508
        48        2.0000           -0.4148087             -11.2875 (HOMO)
        49                         -0.0904871              -2.4623 (LUMO)
        50                         -0.0514301              -1.3995
        51                         -0.0448704              -1.2210
        52                         -0.0255537              -0.6954
        53                         -0.0196737              -0.5353
       ...                                ...                  ...
        82                          1.1995722              32.6420
      -------------------------------------------------------------
                  HL-Gap            0.3243217 Eh            8.8252 eV
             Fermi-level           -0.2526479 Eh           -6.8749 eV

 SCC (total)                   0 d,  0 h,  0 min,  0.037 sec
 SCC setup                      ...        0 min,  0.000 sec (  0.539%)
 Dispersion                     ...        0 min,  0.000 sec (  0.690%)
 classical contributions        ...        0 min,  0.000 sec (  0.135%)
 integral evaluation            ...        0 min,  0.006 sec ( 14.860%)
 iterations                     ...        0 min,  0.015 sec ( 39.887%)
 molecular gradient             ...        0 min,  0.016 sec ( 43.427%)
 printout                       ...        0 min,  0.000 sec (  0.415%)

         :::::::::::::::::::::::::::::::::::::::::::::::::::::
         ::                     SUMMARY                     ::
         :::::::::::::::::::::::::::::::::::::::::::::::::::::
         :: total energy             -58.731221333065 Eh    ::
         :: gradient norm              0.089486125844 Eh/a0 ::
         :: HOMO-LUMO gap              8.825241514007 eV    ::
         ::.................................................::
         :: SCC energy               -59.090325795220 Eh    ::
         :: -> isotropic ES            0.222148580158 Eh    ::
         :: -> anisotropic ES         -0.009479242273 Eh    ::
         :: -> anisotropic XC         -0.007996091993 Eh    ::
         :: -> dispersion             -0.026681735049 Eh    ::
         :: repulsion energy           0.358969246651 Eh    ::
         :: add. restraining           0.000000000000 Eh    ::
         :: total charge               0.000000000000 e     ::
         :::::::::::::::::::::::::::::::::::::::::::::::::::::


Property printout bound to 'properties.out'

           -------------------------------------------------
          | TOTAL ENERGY              -58.731221333065 Eh   |
          | GRADIENT NORM               0.089486125844 Eh/α |
          | HOMO-LUMO GAP               8.825241514007 eV   |
           -------------------------------------------------

------------------------------------------------------------------------
 * finished run on 2023/12/04 at 14:23:03.800     
------------------------------------------------------------------------
 total:
 * wall-time:     0 d,  0 h,  0 min,  0.049 sec
 *  cpu-time:     0 d,  0 h,  0 min,  0.048 sec
 * ratio c/w:     0.979 speedup
 SCF:
 * wall-time:     0 d,  0 h,  0 min,  0.037 sec
 *  cpu-time:     0 d,  0 h,  0 min,  0.036 sec
 * ratio c/w:     0.966 speedup


-------------------------   --------------------
FINAL SINGLE POINT ENERGY       -58.731221333070
-------------------------   --------------------

------------------------------------------------------------------------------
                         ORCA GEOMETRY RELAXATION STEP
------------------------------------------------------------------------------

Reading the OPT-File                    .... done
Getting information on internals        .... done
Copying old internal coords+grads       .... done
Making the new internal coordinates     .... (new redundants).... done
Validating the new internal coordinates .... (new redundants).... done
Calculating the B-matrix                .... done
Calculating the G,G- and P matrices     .... done
Transforming gradient to internals      .... done
Projecting the internal gradient        .... done
Number of atoms                         ....  29
Number of internal coordinates          .... 154
Current Energy                          ....   -58.731221333 Eh
Current gradient norm                   ....     0.089486126 Eh/bohr
Maximum allowed component of the step   ....  0.300
Current trust radius                    ....  0.300
Evaluating the initial hessian          ....  (Almloef) done
Projecting the Hessian                  .... done
Forming the augmented Hessian           .... done
Diagonalizing the augmented Hessian     .... done
Last element of RFO vector              ....  0.968442664
Lowest eigenvalues of augmented Hessian:
 -0.011594225  0.010569565  0.011005315  0.013295406  0.013528613
Length of the computed step             ....  0.257357981
The final length of the internal step   ....  0.257357981
Converting the step to cartesian space:
 Initial RMS(Int)=    0.0207384971
Transforming coordinates:
 Iter   0:  RMS(Cart)=    0.0814733466 RMS(Int)=    0.0206368599
 Iter   1:  RMS(Cart)=    0.0022788479 RMS(Int)=    0.0009310322
 Iter   2:  RMS(Cart)=    0.0001474971 RMS(Int)=    0.0000484336
 Iter   3:  RMS(Cart)=    0.0000114673 RMS(Int)=    0.0000047187
 Iter   4:  RMS(Cart)=    0.0000008077 RMS(Int)=    0.0000003043
 Iter   5:  RMS(Cart)=    0.0000000635 RMS(Int)=    0.0000000265
done
Storing new coordinates                 .... done

                                .--------------------.
          ----------------------|Geometry convergence|-------------------------
          Item                value                   Tolerance       Converged
          ---------------------------------------------------------------------
          RMS gradient        0.0056718447            0.0001000000      NO
          MAX gradient        0.0346953146            0.0003000000      NO
          RMS step            0.0207384971            0.0020000000      NO
          MAX step            0.0682231631            0.0040000000      NO
          ........................................................
          Max(Bonds)      0.0187      Max(Angles)    2.26
          Max(Dihed)        3.91      Max(Improp)    0.00
          ---------------------------------------------------------------------

The optimization has not yet converged - more geometry cycles are needed


    ---------------------------------------------------------------------------
                         Redundant Internal Coordinates
                            (Angstroem and degrees)

        Definition                    Value    dE/dq     Step     New-Value
    ----------------------------------------------------------------------------
     1. B(P   1,O   0)                1.4876  0.034695 -0.0138    1.4737   
     2. B(O   2,P   1)                1.5926  0.005113 -0.0030    1.5896   
     3. B(O   3,P   1)                1.5975 -0.010690  0.0064    1.6039   
     4. B(O   4,P   1)                1.5981  0.005209 -0.0031    1.5950   
     5. B(C   5,O   4)                1.4144  0.006531 -0.0066    1.4078   
     6. B(C   6,C   5)                1.5377  0.004454 -0.0063    1.5314   
     7. B(O   7,C   6)                1.4439  0.014493 -0.0187    1.4253   
     8. B(C   8,O   7)                1.4171  0.007291 -0.0078    1.4093   
     9. B(O   9,C   8)                1.4209  0.018084 -0.0187    1.4022   
    10. B(C  10,C   8)                1.5443  0.005032 -0.0069    1.5375   
    11. B(O  11,C  10)                1.4407  0.015518 -0.0172    1.4234   
    12. B(C  12,C  10)                1.5299  0.003122 -0.0022    1.5278   
    13. B(O  13,C  12)                1.4372  0.010977 -0.0120    1.4252   
    14. B(C  14,C  12)                1.5276  0.002259 -0.0010    1.5266   
    15. B(C  14,C   6)                1.5462  0.009197 -0.0149    1.5313   
    16. B(O  15,C  14)                1.4291  0.015885 -0.0169    1.4121   
    17. B(H  16,O   2)                0.9728  0.012577 -0.0131    0.9597   
    18. B(H  17,O   3)                0.9760  0.016538 -0.0174    0.9585   
    19. B(H  18,C   5)                1.0956 -0.001189  0.0017    1.0973   
    20. B(H  19,C   5)                1.0970  0.001274 -0.0019    1.0951   
    21. B(H  20,C   6)                1.0961  0.000444 -0.0006    1.0955   
    22. B(H  21,C   8)                1.0963 -0.004728  0.0069    1.1032   
    23. B(H  22,O   9)                0.9730  0.007813 -0.0081    0.9649   
    24. B(H  23,C  10)                1.0959 -0.002277  0.0033    1.0992   
    25. B(H  24,O  11)                0.9817  0.011356 -0.0122    0.9695   
    26. B(H  25,C  12)                1.0977  0.000000 -0.0000    1.0977   
    27. B(H  26,O  13)                0.9780  0.012024 -0.0128    0.9652   
    28. B(H  27,C  14)                1.0972 -0.002959  0.0043    1.1015   
    29. B(H  28,O  15)                0.9789  0.009913 -0.0106    0.9684   
    30. A(O   2,P   1,O   3)          100.70 -0.015657    2.26    102.96   
    31. A(O   0,P   1,O   4)          117.49 -0.003168   -0.10    117.39   
    32. A(O   3,P   1,O   4)          104.04  0.008703   -1.12    102.92   
    33. A(O   2,P   1,O   4)          104.08  0.008016   -1.20    102.89   
    34. A(O   0,P   1,O   2)          116.41  0.001894   -0.07    116.34   
    35. A(O   0,P   1,O   3)          112.12 -0.000579    0.40    112.52   
    36. A(P   1,O   2,H  16)          110.98 -0.000734    0.10    111.08   
    37. A(P   1,O   3,H  17)          109.34  0.001385   -0.19    109.15   
    38. A(P   1,O   4,C   5)          117.45  0.005074   -0.60    116.84   
    39. A(C   6,C   5,H  18)          110.01 -0.003268    0.68    110.68   
    40. A(H  18,C   5,H  19)          105.62 -0.003164    1.68    107.30   
    41. A(O   4,C   5,C   6)          112.52  0.006269   -1.40    111.11   
    42. A(O   4,C   5,H  19)          110.54 -0.003882    0.28    110.82   
    43. A(C   6,C   5,H  19)          110.26  0.003122   -0.75    109.51   
    44. A(O   4,C   5,H  18)          107.63  0.000194   -0.27    107.37   
    45. A(C  14,C   6,H  20)          108.03 -0.000693    0.18    108.21   
    46. A(O   7,C   6,C  14)          113.34 -0.000046   -0.37    112.97   
    47. A(C   5,C   6,O   7)          109.17 -0.001338    0.29    109.46   
    48. A(C   5,C   6,C  14)          112.34  0.002603   -0.52    111.81   
    49. A(O   7,C   6,H  20)          106.00  0.000184    0.17    106.17   
    50. A(C   5,C   6,H  20)          107.61 -0.000891    0.34    107.95   
    51. A(C   6,O   7,C   8)          113.41 -0.002209    0.43    113.84   
    52. A(O   9,C   8,C  10)          108.40  0.002084   -0.35    108.05   
    53. A(O   7,C   8,C  10)          111.33 -0.002648    0.25    111.58   
    54. A(C  10,C   8,H  21)          110.65  0.001554   -0.31    110.34   
    55. A(O   9,C   8,H  21)          108.37 -0.003180    0.89    109.26   
    56. A(O   7,C   8,H  21)          109.66  0.001191    0.07    109.74   
    57. A(O   7,C   8,O   9)          108.34  0.000960   -0.56    107.78   
    58. A(C   8,O   9,H  22)          104.63 -0.009480    1.49    106.12   
    59. A(C   8,C  10,C  12)          111.18  0.004816   -1.00    110.18   
    60. A(C   8,C  10,O  11)          111.64 -0.001293   -0.01    111.63   
    61. A(C  12,C  10,H  23)          111.81 -0.000036   -0.73    111.09   
    62. A(O  11,C  10,H  23)          105.25 -0.002123    1.55    106.80   
    63. A(C   8,C  10,H  23)          109.14 -0.000717    0.02    109.16   
    64. A(O  11,C  10,C  12)          107.68 -0.001066    0.29    107.97   
    65. A(C  10,O  11,H  24)          104.63 -0.006613    1.05    105.68   
    66. A(C  14,C  12,H  25)          109.61  0.000207   -0.25    109.36   
    67. A(O  13,C  12,H  25)          105.67 -0.004091    1.78    107.44   
    68. A(C  10,C  12,H  25)          111.29  0.003967   -1.11    110.18   
    69. A(O  13,C  12,C  14)          109.32  0.004006   -1.09    108.23   
    70. A(C  10,C  12,C  14)          110.62 -0.000997    0.09    110.71   
    71. A(C  10,C  12,O  13)          110.20 -0.003148    0.64    110.84   
    72. A(C  12,O  13,H  26)          105.24 -0.004326    0.69    105.93   
    73. A(O  15,C  14,H  27)          106.47 -0.002970    1.26    107.73   
    74. A(C  12,C  14,H  27)          109.38  0.001128   -0.01    109.36   
    75. A(C  12,C  14,O  15)          109.65 -0.003507    0.60    110.25   
    76. A(C   6,C  14,H  27)          111.01 -0.000677   -0.06    110.96   
    77. A(C   6,C  14,O  15)          111.20  0.006137   -1.80    109.40   
    78. A(C   6,C  14,C  12)          109.09 -0.000241    0.05    109.14   
    79. A(C  14,O  15,H  28)          105.41 -0.001294    0.20    105.61   
    80. D(H  16,O   2,P   1,O   3)    -60.62 -0.004926   -0.81    -61.42   
    81. D(H  16,O   2,P   1,O   0)    177.94  0.005717   -2.84    175.10   
    82. D(H  16,O   2,P   1,O   4)     46.96  0.001536   -1.60     45.35   
    83. D(H  17,O   3,P   1,O   4)    162.33 -0.000280   -2.42    159.91   
    84. D(H  17,O   3,P   1,O   2)    -90.06  0.005647   -3.28    -93.34   
    85. D(H  17,O   3,P   1,O   0)     34.37 -0.002131   -1.75     32.62   
    86. D(C   5,O   4,P   1,O   3)    -84.40 -0.003932   -2.23    -86.62   
    87. D(C   5,O   4,P   1,O   2)    170.53  0.007537   -3.91    166.62   
    88. D(C   5,O   4,P   1,O   0)     40.18  0.000213   -2.67     37.52   
    89. D(H  18,C   5,O   4,P   1)    148.17 -0.002997    2.71    150.88   
    90. D(C   6,C   5,O   4,P   1)    -90.47 -0.003032    2.49    -87.98   
    91. D(H  19,C   5,O   4,P   1)     33.28  0.002694    0.71     33.99   
    92. D(O   7,C   6,C   5,H  19)     54.70 -0.002499    1.44     56.13   
    93. D(O   7,C   6,C   5,H  18)    -61.40  0.001446   -0.57    -61.97   
    94. D(H  20,C   6,C   5,H  18)   -176.01  0.002381   -1.09   -177.10   
    95. D(H  20,C   6,C   5,H  19)    -59.92 -0.001564    0.91    -59.00   
    96. D(C  14,C   6,C   5,H  19)   -178.70 -0.001668    0.79   -177.91   
    97. D(C  14,C   6,C   5,H  18)     65.20  0.002277   -1.22     63.99   
    98. D(C  14,C   6,C   5,O   4)    -54.79  0.000146   -0.42    -55.21   
    99. D(O   7,C   6,C   5,O   4)    178.61 -0.000684    0.23    178.84   
   100. D(H  20,C   6,C   5,O   4)     63.99  0.000250   -0.29     63.70   
   101. D(C   8,O   7,C   6,H  20)   -149.46 -0.000002   -0.12   -149.58   
   102. D(C   8,O   7,C   6,C  14)    -31.14 -0.000757   -0.00    -31.14   
   103. D(C   8,O   7,C   6,C   5)     94.89  0.001589   -0.74     94.15   
   104. D(H  21,C   8,O   7,C   6)    -57.07 -0.002695    0.92    -56.15   
   105. D(C  10,C   8,O   7,C   6)     65.72 -0.001688    0.76     66.48   
   106. D(O   9,C   8,O   7,C   6)   -175.17 -0.000102    0.13   -175.04   
   107. D(H  22,O   9,C   8,H  21)    -63.69  0.001979   -3.09    -66.77   
   108. D(H  22,O   9,C   8,C  10)    176.17  0.000745   -3.03    173.14   
   109. D(H  22,O   9,C   8,O   7)     55.24  0.002154   -2.81     52.43   
   110. D(O  11,C  10,C   8,O   7)     87.87  0.000517   -0.37     87.50   
   111. D(H  23,C  10,C   8,O   9)     84.73 -0.004176    2.29     87.01   
   112. D(H  23,C  10,C   8,O   7)   -156.21 -0.003262    1.54   -154.67   
   113. D(C  12,C  10,C   8,H  21)     89.81  0.000227    0.01     89.83   
   114. D(C  12,C  10,C   8,O   9)   -151.48 -0.001462    0.71   -150.77   
   115. D(C  12,C  10,C   8,O   7)    -32.41 -0.000549   -0.05    -32.45   
   116. D(O  11,C  10,C   8,H  21)   -149.91  0.001293   -0.31   -150.22   
   117. D(H  23,C  10,C   8,H  21)    -33.98 -0.002487    1.59    -32.39   
   118. D(O  11,C  10,C   8,O   9)    -31.20 -0.000397    0.39    -30.82   
   119. D(H  24,O  11,C  10,H  23)    -95.86  0.000576   -0.68    -96.54   
   120. D(H  24,O  11,C  10,C  12)    144.72  0.002246   -0.79    143.93   
   121. D(H  24,O  11,C  10,C   8)     22.41 -0.002226    0.27     22.68   
   122. D(H  25,C  12,C  10,H  23)   -144.50  0.003517   -2.13   -146.62   
   123. D(H  25,C  12,C  10,O  11)    -29.35  0.000308   -0.48    -29.83   
   124. D(H  25,C  12,C  10,C   8)     93.24  0.001010   -0.92     92.32   
   125. D(C  14,C  12,C  10,H  23)     93.40  0.001214   -1.11     92.29   
   126. D(C  14,C  12,C  10,O  11)   -151.45 -0.001994    0.54   -150.91   
   127. D(C  14,C  12,C  10,C   8)    -28.86 -0.001292    0.10    -28.76   
   128. D(O  13,C  12,C  10,H  23)    -27.61 -0.001076   -0.22    -27.83   
   129. D(O  13,C  12,C  10,O  11)     87.54 -0.004285    1.43     88.97   
   130. D(O  13,C  12,C  10,C   8)   -149.87 -0.003583    0.99   -148.88   
   131. D(H  26,O  13,C  12,H  25)     61.13 -0.000013    0.40     61.52   
   132. D(H  26,O  13,C  12,C  14)    179.01  0.000015    0.52    179.54   
   133. D(H  26,O  13,C  12,C  10)    -59.21 -0.000636    0.33    -58.88   
   134. D(H  27,C  14,C   6,O   7)     89.31  0.000726   -0.30     89.01   
   135. D(H  27,C  14,C   6,C   5)    -35.02  0.000474    0.02    -34.99   
   136. D(O  15,C  14,C   6,H  20)    -35.21  0.000279    0.19    -35.03   
   137. D(O  15,C  14,C   6,O   7)   -152.36  0.000531    0.08   -152.27   
   138. D(O  15,C  14,C   6,C   5)     83.32  0.000279    0.41     83.73   
   139. D(C  12,C  14,C   6,H  20)     85.85 -0.000343   -0.18     85.67   
   140. D(C  12,C  14,C   6,O   7)    -31.29 -0.000092   -0.28    -31.57   
   141. D(H  27,C  14,C   6,H  20)   -153.55  0.000475   -0.20   -153.75   
   142. D(C  12,C  14,C   6,C   5)   -155.61 -0.000344    0.04   -155.57   
   143. D(H  27,C  14,C  12,H  25)    176.32 -0.003982    2.10    178.41   
   144. D(H  27,C  14,C  12,C  10)    -60.59  0.000494    0.58    -60.01   
   145. D(O  15,C  14,C  12,H  25)     59.92  0.000950    0.24     60.15   
   146. D(O  15,C  14,C  12,O  13)    -55.47  0.003493   -1.14    -56.61   
   147. D(O  15,C  14,C  12,C  10)   -176.99  0.005427   -1.28   -178.27   
   148. D(C   6,C  14,C  12,H  25)    -62.09 -0.004263    2.05    -60.04   
   149. D(H  27,C  14,C  12,O  13)     60.93 -0.001439    0.72     61.65   
   150. D(C   6,C  14,C  12,O  13)   -177.47 -0.001720    0.67   -176.80   
   151. D(C   6,C  14,C  12,C  10)     61.00  0.000213    0.54     61.54   
   152. D(H  28,O  15,C  14,H  27)    -76.95  0.001052   -0.52    -77.46   
   153. D(H  28,O  15,C  14,C  12)     41.28 -0.001136    0.50     41.78   
   154. D(H  28,O  15,C  14,C   6)    162.01  0.000200   -0.20    161.81   
    ----------------------------------------------------------------------------

         *************************************************************
         *                GEOMETRY OPTIMIZATION CYCLE   2            *
         *************************************************************
---------------------------------
CARTESIAN COORDINATES (ANGSTROEM)
---------------------------------
  O    -2.956873    0.697723   -1.899978
  P    -3.443335   -0.010730   -0.702740
  O    -4.136512   -1.419569   -0.950669
  O    -4.574225    0.813337    0.081060
  O    -2.379800   -0.333807    0.441158
  C    -1.396743    0.642797    0.689379
  C    -0.178304    0.441197   -0.216114
  O     0.781271    1.462194    0.045115
  C     1.765902    1.091865    0.982925
  O     2.567326    2.215874    1.228880
  C     2.669491   -0.028293    0.441935
  O     3.768659    0.494506   -0.296053
  C     1.873733   -0.946178   -0.484544
  O     2.373058   -2.279817   -0.428051
  C     0.400536   -0.970431   -0.085314
  O    -0.318173   -1.851657   -0.922602
  H    -4.355269   -1.847557   -0.120014
  H    -5.091032    1.316578   -0.550156
  H    -1.112268    0.560075    1.745960
  H    -1.801538    1.649156    0.538860
  H    -0.501113    0.584086   -1.253167
  H     1.284171    0.775411    1.923562
  H     1.962252    2.930817    1.460587
  H     3.092374   -0.589850    1.286907
  H     3.886607    1.403942    0.018370
  H     1.963450   -0.604908   -1.523965
  H     3.299847   -2.227072   -0.692525
  H     0.308348   -1.339932    0.948270
  H     0.248260   -2.629758   -1.029476

----------------------------
CARTESIAN COORDINATES (A.U.)
----------------------------
  NO LB    ZA    FRAG    MASS        X           Y           Z
   0 O   8.0000    0    15.999   -5.587681    1.318506   -3.590439
   1 P  15.0000    0    30.974   -6.506960   -0.020277   -1.327985
   2 O   8.0000    0    15.999   -7.816875   -2.682596   -1.796503
   3 O   8.0000    0    15.999   -8.644033    1.536984    0.153181
   4 O   8.0000    0    15.999   -4.497170   -0.630803    0.833669
   5 C   6.0000    0    12.011   -2.639461    1.214711    1.302737
   6 C   6.0000    0    12.011   -0.336946    0.833741   -0.408397
   7 O   8.0000    0    15.999    1.476388    2.763146    0.085254
   8 C   6.0000    0    12.011    3.337071    2.063325    1.857459
   9 O   8.0000    0    15.999    4.851542    4.187395    2.322247
  10 C   6.0000    0    12.011    5.044607   -0.053465    0.835136
  11 O   8.0000    0    15.999    7.121733    0.934481   -0.559459
  12 C   6.0000    0    12.011    3.540842   -1.788018   -0.915655
  13 O   8.0000    0    15.999    4.484430   -4.308229   -0.808899
  14 C   6.0000    0    12.011    0.756903   -1.833850   -0.161220
  15 O   8.0000    0    15.999   -0.601259   -3.499124   -1.743465
  16 H   1.0000    0     1.008   -8.230265   -3.491376   -0.226794
  17 H   1.0000    0     1.008   -9.620656    2.487971   -1.039645
  18 H   1.0000    0     1.008   -2.101881    1.058388    3.299387
  19 H   1.0000    0     1.008   -3.404414    3.116453    1.018297
  20 H   1.0000    0     1.008   -0.946966    1.103763   -2.368142
  21 H   1.0000    0     1.008    2.426731    1.465314    3.635006
  22 H   1.0000    0     1.008    3.708119    5.538442    2.760109
  23 H   1.0000    0     1.008    5.843739   -1.114654    2.431903
  24 H   1.0000    0     1.008    7.344623    2.653066    0.034715
  25 H   1.0000    0     1.008    3.710382   -1.143110   -2.879877
  26 H   1.0000    0     1.008    6.235808   -4.208556   -1.308683
  27 H   1.0000    0     1.008    0.582693   -2.532105    1.791971
  28 H   1.0000    0     1.008    0.469144   -4.969522   -1.945429

      -----------------------------------------------------------      
     |                   =====================                   |     
     |                           x T B                           |     
     |                   =====================                   |     
     |                         S. Grimme                         |     
     |          Mulliken Center for Theoretical Chemistry        |     
     |                    University of Bonn                     |     
      -----------------------------------------------------------      

   * xtb version 6.5.1 (579679a) compiled by 'ehlert@majestix' on 2022-07-11

   xtb is free software: you can redistribute it and/or modify it under
   the terms of the GNU Lesser General Public License as published by
   the Free Software Foundation, either version 3 of the License, or
   (at your option) any later version.
   
   xtb is distributed in the hope that it will be useful,
   but WITHOUT ANY WARRANTY; without even the implied warranty of
   MERCHANTABILITY or FITNESS FOR A PARTICULAR PURPOSE.  See the
   GNU Lesser General Public License for more details.
   
   Cite this work as:
   * C. Bannwarth, E. Caldeweyher, S. Ehlert, A. Hansen, P. Pracht,
     J. Seibert, S. Spicher, S. Grimme, WIREs Comput. Mol. Sci., 2020, 11,
     e01493. DOI: 10.1002/wcms.1493
   
   for GFN2-xTB:
   * C. Bannwarth, S. Ehlert and S. Grimme., J. Chem. Theory Comput., 2019,
     15, 1652-1671. DOI: 10.1021/acs.jctc.8b01176
   for GFN1-xTB:
   * S. Grimme, C. Bannwarth, P. Shushkov, J. Chem. Theory Comput., 2017,
     13, 1989-2009. DOI: 10.1021/acs.jctc.7b00118
   for GFN0-xTB:
   * P. Pracht, E. Caldeweyher, S. Ehlert, S. Grimme, ChemRxiv, 2019, preprint.
     DOI: 10.26434/chemrxiv.8326202.v1
   for GFN-FF:
   * S. Spicher and S. Grimme, Angew. Chem. Int. Ed., 2020, 59, 15665-15673.
     DOI: 10.1002/anie.202004239
   
   for ALPB and GBSA implicit solvation:
   * S. Ehlert, M. Stahn, S. Spicher, S. Grimme, J. Chem. Theory Comput.,
     2021, 17, 4250-4261. DOI: 10.1021/acs.jctc.1c00471
   
   for DFT-D4:
   * E. Caldeweyher, C. Bannwarth and S. Grimme, J. Chem. Phys., 2017,
     147, 034112. DOI: 10.1063/1.4993215
   * E. Caldeweyher, S. Ehlert, A. Hansen, H. Neugebauer, S. Spicher,
     C. Bannwarth and S. Grimme, J. Chem. Phys., 2019, 150, 154122.
     DOI: 10.1063/1.5090222
   * E. Caldeweyher, J.-M. Mewes, S. Ehlert and S. Grimme, Phys. Chem. Chem. Phys.
     2020, 22, 8499-8512. DOI: 10.1039/D0CP00502A
   
   for sTDA-xTB:
   * S. Grimme and C. Bannwarth, J. Chem. Phys., 2016, 145, 054103.
     DOI: 10.1063/1.4959605
   
   in the mass-spec context:
   * V. Asgeirsson, C. Bauer and S. Grimme, Chem. Sci., 2017, 8, 4879.
     DOI: 10.1039/c7sc00601b
   * J. Koopman and S. Grimme, ACS Omega 2019, 4, 12, 15120-15133.
     DOI: 10.1021/acsomega.9b02011
   
   for metadynamics refer to:
   * S. Grimme, J. Chem. Theory Comput., 2019, 155, 2847-2862
     DOI: 10.1021/acs.jctc.9b00143
   
   for SPH calculations refer to:
   * S. Spicher and S. Grimme, J. Chem. Theory Comput., 2021, 17, 1701-1714
     DOI: 10.1021/acs.jctc.0c01306
   
   with help from (in alphabetical order)
   P. Atkinson, C. Bannwarth, F. Bohle, G. Brandenburg, E. Caldeweyher
   M. Checinski, S. Dohm, S. Ehlert, S. Ehrlich, I. Gerasimov, C. Hölzer
   A. Katbashev, J. Koopman, C. Lavigne, S. Lehtola, F. März, M. Müller,
   F. Musil, H. Neugebauer, J. Pisarek, C. Plett, P. Pracht, F. Pultar,
   J. Seibert, P. Shushkov, S. Spicher, M. Stahn, M. Steiner, T. Strunk,
   J. Stückrath, T. Rose, and J. Unsleber
   
 * started run on 2023/12/04 at 14:23:03.903     

           -------------------------------------------------
          |                Calculation Setup                |
           -------------------------------------------------

          program call               : otool_xtb /tmp/C00668_XTB.xyz --grad -c 0 -u 0 -P 1 --namespace /tmp/C00668 --input /tmp/C00668_XTB.input.tmp --acc 1.000000
          calculation namespace      : /tmp/C00668
          coordinate file            : /tmp/C00668_XTB.xyz
          omp threads                :                     1

   ID    Z sym.   atoms
    1    8 O      1, 3-5, 8, 10, 12, 14, 16
    2   15 P      2
    3    6 C      6, 7, 9, 11, 13, 15
    4    1 H      17-29

           -------------------------------------------------
          |                 G F N 2 - x T B                 |
           -------------------------------------------------

        Reference                      10.1021/acs.jctc.8b01176
      * Hamiltonian:
        H0-scaling (s, p, d)           1.850000    2.230000    2.230000
        zeta-weighting                 0.500000
      * Dispersion:
        s8                             2.700000
        a1                             0.520000
        a2                             5.000000
        s9                             5.000000
      * Repulsion:
        kExp                           1.500000    1.000000
        rExp                           1.000000
      * Coulomb:
        alpha                          2.000000
        third order                    shell-resolved
        anisotropic                    true
        a3                             3.000000
        a5                             4.000000
        cn-shift                       1.200000
        cn-exp                         4.000000
        max-rad                        5.000000

q/qsh data taken from xtbrestart
CAMM data taken from xtbrestart

          ...................................................
          :                      SETUP                      :
          :.................................................:
          :  # basis functions                  83          :
          :  # atomic orbitals                  82          :
          :  # shells                           46          :
          :  # electrons                        96          :
          :  max. iterations                   250          :
          :  Hamiltonian                  GFN2-xTB          :
          :  restarted?                       true          :
          :  GBSA solvation                  false          :
          :  PC potential                    false          :
          :  electronic temp.          300.0000000     K    :
          :  accuracy                    1.0000000          :
          :  -> integral cutoff          0.2500000E+02      :
          :  -> integral neglect         0.1000000E-07      :
          :  -> SCF convergence          0.1000000E-05 Eh   :
          :  -> wf. convergence          0.1000000E-03 e    :
          :  Broyden damping             0.4000000          :
          ...................................................

 iter      E             dE          RMSdq      gap      omega  full diag
   1    -59.1184733 -0.591185E+02  0.282E-01    9.20       0.0  T
   2    -59.1185128 -0.394527E-04  0.164E-01    9.21       1.0  T
   3    -59.1185140 -0.122297E-05  0.236E-02    9.22       1.0  T
   4    -59.1185199 -0.588638E-05  0.848E-03    9.22       2.2  T
   5    -59.1185200 -0.115878E-06  0.284E-03    9.21       6.5  T
   6    -59.1185200 -0.228492E-07  0.137E-03    9.21      13.6  T
   7    -59.1185200 -0.468496E-08  0.333E-04    9.22      55.7  T
   8    -59.1185200 -0.315659E-09  0.131E-04    9.22     142.1  T

   *** convergence criteria satisfied after 8 iterations ***

         #    Occupation            Energy/Eh            Energy/eV
      -------------------------------------------------------------
         1        2.0000           -0.7458202             -20.2948
       ...           ...                  ...                  ...
        42        2.0000           -0.4521255             -12.3030
        43        2.0000           -0.4430450             -12.0559
        44        2.0000           -0.4381913             -11.9238
        45        2.0000           -0.4319177             -11.7531
        46        2.0000           -0.4242337             -11.5440
        47        2.0000           -0.4225068             -11.4970
        48        2.0000           -0.4123627             -11.2210 (HOMO)
        49                         -0.0737162              -2.0059 (LUMO)
        50                         -0.0399863              -1.0881
        51                         -0.0267198              -0.7271
        52                         -0.0188022              -0.5116
        53                         -0.0108616              -0.2956
       ...                                ...                  ...
        82                          1.2204266              33.2095
      -------------------------------------------------------------
                  HL-Gap            0.3386465 Eh            9.2150 eV
             Fermi-level           -0.2430394 Eh           -6.6134 eV

 SCC (total)                   0 d,  0 h,  0 min,  0.032 sec
 SCC setup                      ...        0 min,  0.000 sec (  0.585%)
 Dispersion                     ...        0 min,  0.000 sec (  0.685%)
 classical contributions        ...        0 min,  0.000 sec (  0.149%)
 integral evaluation            ...        0 min,  0.006 sec ( 17.319%)
 iterations                     ...        0 min,  0.010 sec ( 31.341%)
 molecular gradient             ...        0 min,  0.016 sec ( 49.381%)
 printout                       ...        0 min,  0.000 sec (  0.493%)

         :::::::::::::::::::::::::::::::::::::::::::::::::::::
         ::                     SUMMARY                     ::
         :::::::::::::::::::::::::::::::::::::::::::::::::::::
         :: total energy             -58.739533733719 Eh    ::
         :: gradient norm              0.050489758655 Eh/a0 ::
         :: HOMO-LUMO gap              9.215039745963 eV    ::
         ::.................................................::
         :: SCC energy               -59.118520046056 Eh    ::
         :: -> isotropic ES            0.219260870909 Eh    ::
         :: -> anisotropic ES         -0.010445400174 Eh    ::
         :: -> anisotropic XC         -0.009179245174 Eh    ::
         :: -> dispersion             -0.027154586573 Eh    ::
         :: repulsion energy           0.378842584205 Eh    ::
         :: add. restraining           0.000000000000 Eh    ::
         :: total charge               0.000000000000 e     ::
         :::::::::::::::::::::::::::::::::::::::::::::::::::::


Property printout bound to 'properties.out'

           -------------------------------------------------
          | TOTAL ENERGY              -58.739533733719 Eh   |
          | GRADIENT NORM               0.050489758655 Eh/α |
          | HOMO-LUMO GAP               9.215039745963 eV   |
           -------------------------------------------------

------------------------------------------------------------------------
 * finished run on 2023/12/04 at 14:23:03.947     
------------------------------------------------------------------------
 total:
 * wall-time:     0 d,  0 h,  0 min,  0.044 sec
 *  cpu-time:     0 d,  0 h,  0 min,  0.044 sec
 * ratio c/w:     0.996 speedup
 SCF:
 * wall-time:     0 d,  0 h,  0 min,  0.032 sec
 *  cpu-time:     0 d,  0 h,  0 min,  0.032 sec
 * ratio c/w:     0.988 speedup


-------------------------   --------------------
FINAL SINGLE POINT ENERGY       -58.739533733720
-------------------------   --------------------

------------------------------------------------------------------------------
                         ORCA GEOMETRY RELAXATION STEP
------------------------------------------------------------------------------

Reading the OPT-File                    .... done
Getting information on internals        .... done
Copying old internal coords+grads       .... done
Making the new internal coordinates     .... (new redundants).... done
Validating the new internal coordinates .... (new redundants).... done
Calculating the B-matrix                .... done
Calculating the G,G- and P matrices     .... done
Transforming gradient to internals      .... done
Projecting the internal gradient        .... done
Number of atoms                         ....  29
Number of internal coordinates          .... 154
Current Energy                          ....   -58.739533734 Eh
Current gradient norm                   ....     0.050489759 Eh/bohr
Maximum allowed component of the step   ....  0.300
Current trust radius                    ....  0.300
Updating the Hessian (BFGS)             .... done
Forming the augmented Hessian           .... done
Diagonalizing the augmented Hessian     .... done
Last element of RFO vector              ....  0.947534920
Lowest eigenvalues of augmented Hessian:
 -0.005758093  0.010579040  0.011005875  0.013295502  0.013472336
Length of the computed step             ....  0.337351444
Warning: the length of the step is outside the trust region - taking restricted step instead
The input lambda is                     ....    -0.005758
   iter:   1  x=   -0.008361  g=    9.145227 f(x)=     0.023806
   iter:   2  x=   -0.008957  g=    6.426498 f(x)=     0.003830
   iter:   3  x=   -0.008981  g=    5.967439 f(x)=     0.000139
   iter:   4  x=   -0.008981  g=    5.950427 f(x)=     0.000000
   iter:   5  x=   -0.008981  g=    5.950403 f(x)=     0.000000
   iter:   6  x=   -0.008981  g=    5.950403 f(x)=    -0.000000
The output lambda is                    ....    -0.008981 (6 iterations)
The final length of the internal step   ....  0.300000000
Converting the step to cartesian space:
 Initial RMS(Int)=    0.0241746889
Transforming coordinates:
 Iter   0:  RMS(Cart)=    0.0894591590 RMS(Int)=    0.5035160527
 Iter   1:  RMS(Cart)=    0.0033693286 RMS(Int)=    0.0012939267
 Iter   2:  RMS(Cart)=    0.0002569954 RMS(Int)=    0.0000847793
 Iter   3:  RMS(Cart)=    0.0000242566 RMS(Int)=    0.0000092976
 Iter   4:  RMS(Cart)=    0.0000020775 RMS(Int)=    0.0000007385
 Iter   5:  RMS(Cart)=    0.0000001927 RMS(Int)=    0.0000000759
 Iter   6:  RMS(Cart)=    0.0000000168 RMS(Int)=    0.0000000064
done
Storing new coordinates                 .... done

                                .--------------------.
          ----------------------|Geometry convergence|-------------------------
          Item                value                   Tolerance       Converged
          ---------------------------------------------------------------------
          Energy change      -0.0083124006            0.0000050000      NO
          RMS gradient        0.0026561042            0.0001000000      NO
          MAX gradient        0.0203051851            0.0003000000      NO
          RMS step            0.0241746889            0.0020000000      NO
          MAX step            0.0793536185            0.0040000000      NO
          ........................................................
          Max(Bonds)      0.0172      Max(Angles)    1.95
          Max(Dihed)        4.55      Max(Improp)    0.00
          ---------------------------------------------------------------------

The optimization has not yet converged - more geometry cycles are needed


    ---------------------------------------------------------------------------
                         Redundant Internal Coordinates
                            (Angstroem and degrees)

        Definition                    Value    dE/dq     Step     New-Value
    ----------------------------------------------------------------------------
     1. B(P   1,O   0)                1.4737  0.020305 -0.0157    1.4580   
     2. B(O   2,P   1)                1.5896  0.004977 -0.0053    1.5843   
     3. B(O   3,P   1)                1.6039 -0.006183  0.0071    1.6110   
     4. B(O   4,P   1)                1.5950  0.000582 -0.0011    1.5939   
     5. B(C   5,O   4)                1.4078  0.000216 -0.0014    1.4063   
     6. B(C   6,C   5)                1.5314 -0.001411  0.0024    1.5337   
     7. B(O   7,C   6)                1.4253  0.003184 -0.0108    1.4144   
     8. B(C   8,O   7)                1.4093  0.001175 -0.0037    1.4056   
     9. B(O   9,C   8)                1.4022  0.007084 -0.0151    1.3871   
    10. B(C  10,C   8)                1.5375 -0.002056  0.0043    1.5418   
    11. B(O  11,C  10)                1.4234  0.007893 -0.0172    1.4062   
    12. B(C  12,C  10)                1.5278 -0.001917  0.0060    1.5338   
    13. B(O  13,C  12)                1.4252  0.005153 -0.0113    1.4139   
    14. B(C  14,C  12)                1.5265 -0.001049  0.0038    1.5304   
    15. B(C  14,C   6)                1.5313 -0.000839 -0.0014    1.5299   
    16. B(O  15,C  14)                1.4121  0.005340 -0.0121    1.4001   
    17. B(H  16,O   2)                0.9597  0.001884 -0.0053    0.9544   
    18. B(H  17,O   3)                0.9585  0.002084 -0.0064    0.9521   
    19. B(H  18,C   5)                1.0973  0.000564 -0.0011    1.0962   
    20. B(H  19,C   5)                1.0951  0.000314 -0.0010    1.0941   
    21. B(H  20,C   6)                1.0955  0.000033 -0.0002    1.0953   
    22. B(H  21,C   8)                1.1032 -0.002008  0.0059    1.1091   
    23. B(H  22,O   9)                0.9649  0.000719 -0.0025    0.9623   
    24. B(H  23,C  10)                1.0992 -0.001133  0.0032    1.1024   
    25. B(H  24,O  11)                0.9695  0.001641 -0.0048    0.9646   
    26. B(H  25,C  12)                1.0977 -0.000480  0.0012    1.0988   
    27. B(H  26,O  13)                0.9652  0.001430 -0.0045    0.9607   
    28. B(H  27,C  14)                1.1015 -0.000994  0.0031    1.1046   
    29. B(H  28,O  15)                0.9684  0.000963 -0.0034    0.9650   
    30. A(O   2,P   1,O   3)          102.95 -0.007232    1.95    104.90   
    31. A(O   0,P   1,O   4)          117.38 -0.003172    0.35    117.73   
    32. A(O   3,P   1,O   4)          102.93  0.005024   -1.28    101.65   
    33. A(O   2,P   1,O   4)          102.89  0.004128   -1.17    101.72   
    34. A(O   0,P   1,O   2)          116.31  0.001177   -0.08    116.23   
    35. A(O   0,P   1,O   3)          112.50  0.000132    0.26    112.76   
    36. A(P   1,O   2,H  16)          111.08 -0.001086    0.26    111.33   
    37. A(P   1,O   3,H  17)          109.15  0.000094   -0.05    109.10   
    38. A(P   1,O   4,C   5)          116.84  0.001342   -0.36    116.49   
    39. A(C   6,C   5,H  18)          110.68 -0.001390    0.52    111.20   
    40. A(H  18,C   5,H  19)          107.30 -0.001796    1.62    108.92   
    41. A(O   4,C   5,C   6)          111.10  0.002334   -1.14    109.96   
    42. A(O   4,C   5,H  19)          110.80 -0.001813    0.37    111.17   
    43. A(C   6,C   5,H  19)          109.50  0.001866   -0.75    108.75   
    44. A(O   4,C   5,H  18)          107.37  0.000587   -0.46    106.91   
    45. A(C  14,C   6,H  20)          108.21 -0.000288   -0.15    108.06   
    46. A(O   7,C   6,C  14)          112.97  0.000496   -0.28    112.69   
    47. A(C   5,C   6,O   7)          109.45 -0.001523    0.82    110.27   
    48. A(C   5,C   6,C  14)          111.81  0.001132   -0.42    111.39   
    49. A(O   7,C   6,H  20)          106.17 -0.000157    0.23    106.40   
    50. A(C   5,C   6,H  20)          107.95  0.000291   -0.19    107.76   
    51. A(C   6,O   7,C   8)          113.83 -0.002121    0.70    114.54   
    52. A(O   9,C   8,C  10)          108.05 -0.000045    0.14    108.19   
    53. A(O   7,C   8,C  10)          111.59 -0.000946    0.23    111.81   
    54. A(C  10,C   8,H  21)          110.34  0.001376   -0.68    109.66   
    55. A(O   9,C   8,H  21)          109.27 -0.001439    0.85    110.12   
    56. A(O   7,C   8,H  21)          109.74  0.000681   -0.23    109.51   
    57. A(O   7,C   8,O   9)          107.78  0.000302   -0.28    107.51   
    58. A(C   8,O   9,H  22)          106.12 -0.006295    1.86    107.98   
    59. A(C   8,C  10,C  12)          110.18  0.001984   -0.77    109.42   
    60. A(C   8,C  10,O  11)          111.63 -0.000816    0.25    111.88   
    61. A(C  12,C  10,H  23)          111.08  0.000620   -1.18    109.89   
    62. A(O  11,C  10,H  23)          106.81 -0.001484    1.69    108.50   
    63. A(C   8,C  10,H  23)          109.14 -0.000060   -0.24    108.90   
    64. A(O  11,C  10,C  12)          107.97 -0.000352    0.34    108.31   
    65. A(C  10,O  11,H  24)          105.68 -0.004654    1.39    107.07   
    66. A(C  14,C  12,H  25)          109.36  0.000297   -0.49    108.86   
    67. A(O  13,C  12,H  25)          107.45 -0.002510    1.89    109.34   
    68. A(C  10,C  12,H  25)          110.17  0.002936   -1.58    108.59   
    69. A(O  13,C  12,C  14)          108.23  0.002489   -1.03    107.21   
    70. A(C  10,C  12,C  14)          110.71 -0.001216    0.35    111.06   
    71. A(C  10,C  12,O  13)          110.84 -0.002020    0.91    111.74   
    72. A(C  12,O  13,H  26)          105.93 -0.003967    1.15    107.08   
    73. A(O  15,C  14,H  27)          107.72 -0.001660    1.30    109.02   
    74. A(C  12,C  14,H  27)          109.36  0.001084   -0.54    108.82   
    75. A(C  12,C  14,O  15)          110.24 -0.001424    0.63    110.87   
    76. A(C   6,C  14,H  27)          110.96 -0.000043   -0.24    110.73   
    77. A(C   6,C  14,O  15)          109.40  0.002360   -1.29    108.12   
    78. A(C   6,C  14,C  12)          109.14 -0.000343    0.16    109.29   
    79. A(C  14,O  15,H  28)          105.61 -0.002944    0.80    106.42   
    80. D(H  16,O   2,P   1,O   3)    -61.41 -0.002227   -1.81    -63.22   
    81. D(H  16,O   2,P   1,O   0)    175.10  0.002285   -3.49    171.61   
    82. D(H  16,O   2,P   1,O   4)     45.34  0.002203   -2.90     42.44   
    83. D(H  17,O   3,P   1,O   4)    159.92 -0.000507   -2.83    157.09   
    84. D(H  17,O   3,P   1,O   2)    -93.36  0.003236   -3.83    -97.19   
    85. D(H  17,O   3,P   1,O   0)     32.63 -0.000149   -2.53     30.10   
    86. D(C   5,O   4,P   1,O   3)    -86.62 -0.001281   -3.23    -89.85   
    87. D(C   5,O   4,P   1,O   2)    166.61  0.003643   -4.55    162.07   
    88. D(C   5,O   4,P   1,O   0)     37.52  0.000821   -3.68     33.83   
    89. D(H  18,C   5,O   4,P   1)    150.87 -0.002007    3.83    154.70   
    90. D(C   6,C   5,O   4,P   1)    -87.97 -0.001941    3.47    -84.50   
    91. D(H  19,C   5,O   4,P   1)     33.99  0.000789    1.96     35.95   
    92. D(O   7,C   6,C   5,H  19)     56.13 -0.001271    1.48     57.61   
    93. D(O   7,C   6,C   5,H  18)    -61.97  0.000620   -0.36    -62.33   
    94. D(H  20,C   6,C   5,H  18)   -177.10  0.001445   -0.96   -178.06   
    95. D(H  20,C   6,C   5,H  19)    -59.01 -0.000446    0.88    -58.13   
    96. D(C  14,C   6,C   5,H  19)   -177.92 -0.000947    1.43   -176.49   
    97. D(C  14,C   6,C   5,H  18)     63.98  0.000944   -0.40     63.58   
    98. D(C  14,C   6,C   5,O   4)    -55.20 -0.000396    0.57    -54.63   
    99. D(O   7,C   6,C   5,O   4)    178.85 -0.000720    0.62    179.46   
[...]
                 84         85         86    
      0       0.000013  -0.000007  -0.000131
      1      -0.000015   0.000023  -0.000253
      2       0.000005  -0.000015   0.000155
      3      -0.000039   0.000021   0.000200
      4       0.000023  -0.000014  -0.000297
      5      -0.000005   0.000018  -0.000053
      6       0.001800  -0.000064  -0.000433
      7      -0.000096   0.000005   0.000291
      8      -0.000684   0.000013   0.000327
      9      -0.000111   0.000020   0.038839
     10       0.000145  -0.000032  -0.048684
     11       0.000020  -0.000008  -0.006054
     12       0.000072  -0.000036  -0.000472
     13      -0.000009  -0.000002  -0.000159
     14      -0.000010  -0.000012  -0.000119
     15      -0.000012   0.000005   0.000207
     16       0.000058  -0.000023   0.000197
     17       0.000046   0.000026   0.000088
     18      -0.000184  -0.000022   0.000071
     19       0.000280  -0.000011   0.000050
     20      -0.000052  -0.000029  -0.000045
     21      -0.000021   0.000183  -0.000050
     22      -0.000042   0.000120  -0.000018
     23      -0.000018   0.000040  -0.000006
     24       0.000027   0.000800   0.000048
     25       0.000067   0.001192   0.000015
     26       0.000062  -0.000957   0.000031
     27      -0.000014  -0.018947  -0.000003
     28      -0.000015   0.048302  -0.000038
     29      -0.000004  -0.033593   0.000024
     30       0.000022  -0.000201   0.000018
     31       0.000050   0.000101  -0.000006
     32       0.000101  -0.000291   0.000024
     33      -0.000247  -0.000679  -0.000030
     34      -0.000238  -0.001226  -0.000018
     35       0.000134   0.000882   0.000011
     36       0.000145  -0.000006   0.000028
     37      -0.000406   0.000065  -0.000010
     38      -0.000023   0.000039  -0.000020
     39       0.001981   0.000014  -0.000054
     40       0.000058  -0.000045   0.000015
     41       0.001314   0.000023  -0.000028
     42      -0.000006   0.000035  -0.000012
     43       0.001300   0.000009  -0.000040
     44       0.001212   0.000017   0.000027
     45      -0.029462  -0.000016  -0.000113
     46       0.053257  -0.000012   0.000171
     47       0.009822  -0.000018   0.000036
     48      -0.030335   0.000981   0.003844
     49       0.002900  -0.000023  -0.000837
     50       0.011095  -0.000247  -0.002266
     51       0.001619  -0.000398  -0.613169
     52      -0.002229   0.000517   0.781849
     53      -0.000226   0.000080   0.093738
     54      -0.000269  -0.000165  -0.000440
     55       0.000107   0.000133  -0.000007
     56       0.000068  -0.000291  -0.000615
     57       0.000216   0.000047   0.000396
     58      -0.000680   0.000023   0.000192
     59       0.000107   0.000125   0.000073
     60       0.002556  -0.000399   0.000389
     61      -0.001758  -0.000232  -0.000183
     62       0.004075  -0.000251   0.000263
     63       0.000180  -0.002512   0.000044
     64      -0.000209   0.001339  -0.000031
     65      -0.000083   0.002075  -0.000098
     66       0.000053   0.289864  -0.000133
     67       0.000124  -0.784375   0.000559
     68       0.000012   0.544140  -0.000359
     69       0.000235  -0.000749   0.000047
     70       0.000114  -0.000341  -0.000009
     71      -0.000379   0.001170  -0.000080
     72       0.003001   0.015463   0.000346
     73       0.003585   0.019022   0.000338
     74      -0.002685  -0.014177  -0.000237
     75       0.000675   0.000176  -0.000021
     76       0.001271   0.000629  -0.000055
     77      -0.000974  -0.000236   0.000078
     78      -0.029582  -0.000138   0.000783
     79       0.001303  -0.000101  -0.000081
     80      -0.017798  -0.000111   0.000453
     81       0.000081  -0.000098   0.000014
     82       0.000646  -0.000236   0.000332
     83      -0.000772   0.000159  -0.000468
     84       0.465323   0.000066   0.001427
     85      -0.863884   0.000074  -0.002535
     86      -0.176215   0.000060  -0.000396


-----------
IR SPECTRUM
-----------

 Mode   freq       eps      Int      T**2         TX        TY        TZ
       cm**-1   L/(mol*cm) km/mol    a.u.
----------------------------------------------------------------------------
  6:     36.95   0.000214    1.08  0.001811  ( 0.005822 -0.041933 -0.004298)
  7:     43.43   0.000488    2.46  0.003503  (-0.013877  0.051971 -0.024695)
  8:     64.46   0.000169    0.85  0.000818  (-0.008096  0.024119 -0.013065)
  9:     88.42   0.001443    7.29  0.005093  ( 0.039688 -0.020191  0.055772)
 10:     98.55   0.000193    0.98  0.000612  (-0.008369  0.019286  0.013052)
 11:    130.35   0.000711    3.59  0.001702  ( 0.036966 -0.006881  0.016989)
 12:    151.08   0.001794    9.07  0.003707  ( 0.040895 -0.019249  0.040787)
 13:    194.16   0.015770   79.70  0.025346  ( 0.031838  0.000201  0.155989)
 14:    215.42   0.003156   15.95  0.004571  (-0.004455  0.056827  0.036363)
 15:    217.55   0.019829  100.21  0.028444  (-0.066206 -0.098711 -0.119653)
 16:    240.41   0.003459   17.48  0.004489  ( 0.053403  0.005915  0.040030)
 17:    251.98   0.001104    5.58  0.001368  ( 0.028101 -0.015735 -0.018175)
 18:    276.99   0.002547   12.87  0.002869  ( 0.016630 -0.050456  0.006852)
 19:    282.83   0.001241    6.27  0.001370  ( 0.020690  0.024679  0.018236)
 20:    305.93   0.001990   10.06  0.002030  (-0.013501 -0.006197  0.042534)
 21:    327.23   0.004848   24.50  0.004623  ( 0.057449 -0.000888  0.036357)
 22:    361.96   0.002064   10.43  0.001779  (-0.004897 -0.027013  0.032023)
 23:    368.32   0.008155   41.21  0.006910  (-0.016703  0.013360 -0.080325)
 24:    393.31   0.019741   99.77  0.015663  (-0.090102 -0.068585  0.053302)
 25:    404.29   0.001599    8.08  0.001234  ( 0.020709  0.028343  0.001418)
 26:    407.79   0.017932   90.62  0.013722  (-0.110529  0.035600  0.015432)
 27:    420.05   0.004483   22.65  0.003330  (-0.051662 -0.021713  0.013786)
 28:    442.40   0.034864  176.19  0.024593  ( 0.045382  0.105266  0.107015)
 29:    449.61   0.008284   41.87  0.005750  ( 0.044262 -0.010176 -0.060724)
 30:    461.22   0.051108  258.28  0.034580  (-0.103462  0.081308  0.131394)
 31:    489.04   0.004333   21.90  0.002765  ( 0.047145  0.003668  0.023004)
 32:    497.64   0.005205   26.30  0.003264  (-0.038623  0.001963  0.042052)
 33:    554.11   0.016701   84.40  0.009406  ( 0.018039 -0.000370  0.095289)
 34:    561.42   0.002079   10.51  0.001156  (-0.019875  0.027006  0.005584)
 35:    581.22   0.027804  140.51  0.014928  (-0.020708  0.071511 -0.096880)
 36:    689.62   0.001749    8.84  0.000791  ( 0.005158 -0.020637  0.018410)
 37:    714.71   0.041783  211.16  0.018244  (-0.086553 -0.036706 -0.096980)
 38:    733.86   0.018186   91.90  0.007733  ( 0.058025 -0.035894  0.055480)
 39:    835.51   0.025215  127.43  0.009418  ( 0.083977  0.024139  0.042226)
 40:    870.41   0.007605   38.43  0.002726  (-0.046391 -0.022574  0.008043)
 41:    886.28   0.071327  360.46  0.025115  (-0.101640  0.038270  0.115410)
 42:    891.58   0.001711    8.64  0.000599  (-0.003436  0.023023  0.007539)
 43:    910.65   0.018880   95.41  0.006470  (-0.036599 -0.071373  0.006037)
 44:    985.10   0.010328   52.19  0.003272  ( 0.004558  0.045156 -0.034812)
 45:   1006.93   0.063648  321.65  0.019725  ( 0.087921  0.107224  0.022324)
 46:   1028.03   0.007849   39.67  0.002383  (-0.034313  0.002762 -0.034606)
 47:   1039.67   0.015977   80.74  0.004796  ( 0.029639  0.055988  0.027975)
 48:   1052.89   0.017115   86.49  0.005073  ( 0.043988  0.016087  0.053655)
 49:   1077.39   0.025439  128.56  0.007368  ( 0.073329  0.016293  0.041542)
 50:   1093.63   0.000372    1.88  0.000106  ( 0.007433 -0.000806  0.007081)
 51:   1109.47   0.012893   65.15  0.003626  ( 0.051413  0.015462 -0.027276)
 52:   1116.38   0.026443  133.63  0.007392  (-0.071993 -0.037702 -0.028058)
 53:   1123.16   0.003127   15.80  0.000869  (-0.003508  0.025917  0.013589)
 54:   1137.28   0.027793  140.45  0.007626  (-0.062349 -0.045904  0.040394)
 55:   1151.69   0.018552   93.76  0.005027  ( 0.053314 -0.046163  0.007323)
 56:   1168.18   0.019332   97.69  0.005164  (-0.052628 -0.003025 -0.048840)
 57:   1191.24   0.008355   42.22  0.002189  (-0.022261 -0.041051 -0.002817)
 58:   1202.00   0.001245    6.29  0.000323  ( 0.007762  0.003778  0.015773)
 59:   1227.23   0.007475   37.77  0.001901  (-0.029274  0.014676  0.028781)
 60:   1232.36   0.038558  194.86  0.009764  (-0.082933  0.023225 -0.048442)
 61:   1256.15   0.026072  131.76  0.006477  ( 0.019491  0.078071 -0.001421)
 62:   1259.33   0.038207  193.08  0.009468  ( 0.004275  0.083881 -0.049126)
 63:   1274.28   0.039982  202.05  0.009791  ( 0.026139  0.094586  0.012708)
 64:   1277.52   0.010736   54.25  0.002622  ( 0.029146  0.029740 -0.029808)
 65:   1285.68   0.001099    5.55  0.000267  (-0.012065 -0.005180 -0.009713)
 66:   1287.66   0.008437   42.64  0.002045  (-0.038442  0.019798 -0.013226)
 67:   1317.04   0.003907   19.74  0.000926  (-0.008719  0.024243 -0.016183)
 68:   1326.42   0.001603    8.10  0.000377  (-0.018512 -0.005814  0.000756)
 69:   1336.30   0.011962   60.45  0.002793  (-0.031505  0.038715 -0.017377)
 70:   1341.04   0.007088   35.82  0.001649  (-0.016748 -0.010914 -0.035352)
 71:   1350.22   0.000449    2.27  0.000104  (-0.006910  0.003347 -0.006693)
 72:   1355.31   0.012007   60.68  0.002765  (-0.037271  0.031466 -0.019630)
 73:   1452.28   0.000101    0.51  0.000022  ( 0.003818  0.002395  0.001218)
 74:   2786.62   0.019357   97.82  0.002168  (-0.003737  0.023067  0.040270)
 75:   2860.80   0.004581   23.15  0.000500  (-0.001906 -0.018686  0.012118)
 76:   2880.56   0.012502   63.18  0.001354  (-0.000713  0.020794 -0.030356)
 77:   2938.66   0.008928   45.12  0.000948  (-0.002684 -0.020426  0.022883)
 78:   2939.92   0.001737    8.78  0.000184  (-0.001191 -0.010545  0.008473)
 79:   2946.26   0.004000   20.21  0.000424  ( 0.001170 -0.020495 -0.001506)
 80:   2957.36   0.005746   29.04  0.000606  ( 0.001799  0.005294  0.023979)
 81:   3238.05   0.127743  645.56  0.012311  (-0.106569  0.020109  0.023446)
 82:   3457.38   0.021511  108.71  0.001942  ( 0.033850  0.026619 -0.009336)
 83:   3469.34   0.008718   44.06  0.000784  (-0.019818 -0.007141 -0.018449)
 84:   3492.79   0.016547   83.62  0.001478  ( 0.021900 -0.029901 -0.010234)
 85:   3538.32   0.009673   48.88  0.000853  ( 0.015160 -0.021419  0.012826)
 86:   3615.81   0.020730  104.76  0.001789  (-0.035092  0.022966  0.005496)

* The epsilon (eps) is given for a Dirac delta lineshape.
** The dipole moment derivative (T) already includes vibrational overlap.

The first frequency considered to be a vibration is 6
The total number of vibrations considered is 81


--------------------------
THERMOCHEMISTRY AT 298.15K
--------------------------

Temperature         ... 298.15 K
Pressure            ... 1.00 atm
Total Mass          ... 260.13 AMU

Throughout the following assumptions are being made:
  (1) The electronic state is orbitally nondegenerate
  (2) There are no thermally accessible electronically excited states
  (3) Hindered rotations indicated by low frequency modes are not
      treated as such but are treated as vibrations and this may
      cause some error
  (4) All equations used are the standard statistical mechanics
      equations for an ideal gas
  (5) All vibrations are strictly harmonic

freq.      36.95  E(vib)   ...       0.54 
freq.      43.43  E(vib)   ...       0.53 
freq.      64.46  E(vib)   ...       0.51 
freq.      88.42  E(vib)   ...       0.48 
freq.      98.55  E(vib)   ...       0.46 
freq.     130.35  E(vib)   ...       0.43 
freq.     151.08  E(vib)   ...       0.40 
freq.     194.16  E(vib)   ...       0.36 
freq.     215.42  E(vib)   ...       0.34 
freq.     217.55  E(vib)   ...       0.33 
freq.     240.41  E(vib)   ...       0.31 
freq.     251.98  E(vib)   ...       0.30 
freq.     276.99  E(vib)   ...       0.28 
freq.     282.83  E(vib)   ...       0.28 
freq.     305.93  E(vib)   ...       0.26 
freq.     327.23  E(vib)   ...       0.24 
freq.     361.96  E(vib)   ...       0.22 
freq.     368.32  E(vib)   ...       0.21 
freq.     393.31  E(vib)   ...       0.20 
freq.     404.29  E(vib)   ...       0.19 
freq.     407.79  E(vib)   ...       0.19 
freq.     420.05  E(vib)   ...       0.18 
freq.     442.40  E(vib)   ...       0.17 
freq.     449.61  E(vib)   ...       0.17 
freq.     461.22  E(vib)   ...       0.16 
freq.     489.04  E(vib)   ...       0.15 
freq.     497.64  E(vib)   ...       0.14 
freq.     554.11  E(vib)   ...       0.12 
freq.     561.42  E(vib)   ...       0.11 
freq.     581.22  E(vib)   ...       0.11 
freq.     689.62  E(vib)   ...       0.07 
freq.     714.71  E(vib)   ...       0.07 
freq.     733.86  E(vib)   ...       0.06 
freq.     835.51  E(vib)   ...       0.04 
freq.     870.41  E(vib)   ...       0.04 
freq.     886.28  E(vib)   ...       0.04 
freq.     891.58  E(vib)   ...       0.03 
freq.     910.65  E(vib)   ...       0.03 
freq.     985.10  E(vib)   ...       0.02 
freq.    1006.93  E(vib)   ...       0.02 
freq.    1028.03  E(vib)   ...       0.02 
freq.    1039.67  E(vib)   ...       0.02 
freq.    1052.89  E(vib)   ...       0.02 
freq.    1077.39  E(vib)   ...       0.02 
freq.    1093.63  E(vib)   ...       0.02 
freq.    1109.47  E(vib)   ...       0.02 
freq.    1116.38  E(vib)   ...       0.01 
freq.    1123.16  E(vib)   ...       0.01 
freq.    1137.28  E(vib)   ...       0.01 
freq.    1151.69  E(vib)   ...       0.01 
freq.    1168.18  E(vib)   ...       0.01 
freq.    1191.24  E(vib)   ...       0.01 
freq.    1202.00  E(vib)   ...       0.01 
freq.    1227.23  E(vib)   ...       0.01 
freq.    1232.36  E(vib)   ...       0.01 
freq.    1256.15  E(vib)   ...       0.01 
freq.    1259.33  E(vib)   ...       0.01 
freq.    1274.28  E(vib)   ...       0.01 
freq.    1277.52  E(vib)   ...       0.01 
freq.    1285.68  E(vib)   ...       0.01 
freq.    1287.66  E(vib)   ...       0.01 
freq.    1317.04  E(vib)   ...       0.01 
freq.    1326.42  E(vib)   ...       0.01 
freq.    1336.30  E(vib)   ...       0.01 
freq.    1341.04  E(vib)   ...       0.01 
freq.    1350.22  E(vib)   ...       0.01 
freq.    1355.31  E(vib)   ...       0.01 
freq.    1452.28  E(vib)   ...       0.00 
freq.    2786.62  E(vib)   ...       0.00 
freq.    2860.80  E(vib)   ...       0.00 
freq.    2880.56  E(vib)   ...       0.00 
freq.    2938.66  E(vib)   ...       0.00 
freq.    2939.92  E(vib)   ...       0.00 
freq.    2946.26  E(vib)   ...       0.00 
freq.    2957.36  E(vib)   ...       0.00 
freq.    3238.05  E(vib)   ...       0.00 
freq.    3457.38  E(vib)   ...       0.00 
freq.    3469.34  E(vib)   ...       0.00 
freq.    3492.79  E(vib)   ...       0.00 
freq.    3538.32  E(vib)   ...       0.00 
freq.    3615.81  E(vib)   ...       0.00 

------------
INNER ENERGY
------------

The inner energy is: U= E(el) + E(ZPE) + E(vib) + E(rot) + E(trans)
    E(el)   - is the total energy from the electronic structure calculation
              = E(kin-el) + E(nuc-el) + E(el-el) + E(nuc-nuc)
    E(ZPE)  - the the zero temperature vibrational energy from the frequency calculation
    E(vib)  - the the finite temperature correction to E(ZPE) due to population
              of excited vibrational states
    E(rot)  - is the rotational thermal energy
    E(trans)- is the translational thermal energy

Summary of contributions to the inner energy U:
Electronic energy                ...    -58.75429008 Eh
Zero point energy                ...      0.21194824 Eh     133.00 kcal/mol
Thermal vibrational correction   ...      0.01451022 Eh       9.11 kcal/mol
Thermal rotational correction    ...      0.00141627 Eh       0.89 kcal/mol
Thermal translational correction ...      0.00141627 Eh       0.89 kcal/mol
-----------------------------------------------------------------------
Total thermal energy                    -58.52499907 Eh


Summary of corrections to the electronic energy:
(perhaps to be used in another calculation)
Total thermal correction                  0.01734276 Eh      10.88 kcal/mol
Non-thermal (ZPE) correction              0.21194824 Eh     133.00 kcal/mol
-----------------------------------------------------------------------
Total correction                          0.22929101 Eh     143.88 kcal/mol


--------
ENTHALPY
--------

The enthalpy is H = U + kB*T
                kB is Boltzmann's constant
Total free energy                 ...    -58.52499907 Eh 
Thermal Enthalpy correction       ...      0.00094421 Eh       0.59 kcal/mol
-----------------------------------------------------------------------
Total Enthalpy                    ...    -58.52405486 Eh


Note: Only C1 symmetry has been detected, increase convergence thresholds 
      if your molecule has a higher symmetry. Symmetry factor of 1.0 is   
      used for the rotational entropy correction. 
 

Note: Rotational entropy computed according to Herzberg 
Infrared and Raman Spectra, Chapter V,1, Van Nostrand Reinhold, 1945 
Point Group:  C1, Symmetry Number:   1  
Rotational constants in cm-1:     0.033422     0.009132     0.008117 

Vibrational entropy computed according to the QRRHO of S. Grimme
Chem.Eur.J. 2012 18 9955


-------
ENTROPY
-------

The entropy contributions are T*S = T*(S(el)+S(vib)+S(rot)+S(trans))
     S(el)   - electronic entropy
     S(vib)  - vibrational entropy
     S(rot)  - rotational entropy
     S(trans)- translational entropy
The entropies will be listed as multiplied by the temperature to get
units of energy

Electronic entropy                ...      0.00000000 Eh      0.00 kcal/mol
Vibrational entropy               ...      0.02502041 Eh     15.70 kcal/mol
Rotational entropy                ...      0.01560475 Eh      9.79 kcal/mol
Translational entropy             ...      0.02022524 Eh     12.69 kcal/mol
-----------------------------------------------------------------------
Final entropy term                ...      0.06085040 Eh     38.18 kcal/mol

In case the symmetry of your molecule has not been determined correctly
or in case you have a reason to use a different symmetry number we print 
out the resulting rotational entropy values for sn=1,12 :
 --------------------------------------------------------
|  sn= 1 | S(rot)=       0.01560475 Eh      9.79 kcal/mol|
|  sn= 2 | S(rot)=       0.01495029 Eh      9.38 kcal/mol|
|  sn= 3 | S(rot)=       0.01456746 Eh      9.14 kcal/mol|
|  sn= 4 | S(rot)=       0.01429583 Eh      8.97 kcal/mol|
|  sn= 5 | S(rot)=       0.01408515 Eh      8.84 kcal/mol|
|  sn= 6 | S(rot)=       0.01391300 Eh      8.73 kcal/mol|
|  sn= 7 | S(rot)=       0.01376746 Eh      8.64 kcal/mol|
|  sn= 8 | S(rot)=       0.01364138 Eh      8.56 kcal/mol|
|  sn= 9 | S(rot)=       0.01353017 Eh      8.49 kcal/mol|
|  sn=10 | S(rot)=       0.01343069 Eh      8.43 kcal/mol|
|  sn=11 | S(rot)=       0.01334070 Eh      8.37 kcal/mol|
|  sn=12 | S(rot)=       0.01325854 Eh      8.32 kcal/mol|
 --------------------------------------------------------


-------------------
GIBBS FREE ENERGY
-------------------

The Gibbs free energy is G = H - T*S

Total enthalpy                    ...    -58.52405486 Eh 
Total entropy correction          ...     -0.06085040 Eh    -38.18 kcal/mol
-----------------------------------------------------------------------
Final Gibbs free energy         ...    -58.58490525 Eh

For completeness - the Gibbs free energy minus the electronic energy
G-E(el)                           ...      0.16938482 Eh    106.29 kcal/mol



Timings for individual modules:

Sum of individual times         ...      430.673 sec (=   7.178 min)
Geometry relaxation             ...        3.697 sec (=   0.062 min)   0.9 %
Numerical frequency calculation ...      424.219 sec (=   7.070 min)  98.5 %
XTB module                      ...        2.758 sec (=   0.046 min)   0.6 %
                             ****ORCA TERMINATED NORMALLY****
TOTAL RUN TIME: 0 days 0 hours 7 minutes 13 seconds 598 msec
