
                                 *****************
                                 * O   R   C   A *
                                 *****************

                                            #,                                       
                                            ###                                      
                                            ####                                     
                                            #####                                    
                                            ######                                   
                                           ########,                                 
                                     ,,################,,,,,                         
                               ,,#################################,,                 
                          ,,##########################################,,             
                       ,#########################################, ''#####,          
                    ,#############################################,,   '####,        
                  ,##################################################,,,,####,       
                ,###########''''           ''''###############################       
              ,#####''   ,,,,##########,,,,          '''####'''          '####       
            ,##' ,,,,###########################,,,                        '##       
           ' ,,###''''                  '''############,,,                           
         ,,##''                                '''############,,,,        ,,,,,,###''
      ,#''                                            '''#######################'''  
     '                                                          ''''####''''         
             ,#######,   #######,   ,#######,      ##                                
            ,#'     '#,  ##    ##  ,#'     '#,    #''#        ######   ,####,        
            ##       ##  ##   ,#'  ##            #'  '#       #        #'  '#        
            ##       ##  #######   ##           ,######,      #####,   #    #        
            '#,     ,#'  ##    ##  '#,     ,#' ,#      #,         ##   #,  ,#        
             '#######'   ##     ##  '#######'  #'      '#     #####' # '####'        



                  #######################################################
                  #                        -***-                        #
                  #          Department of theory and spectroscopy      #
                  #    Directorship and core code : Frank Neese         #
                  #        Max Planck Institute fuer Kohlenforschung    #
                  #                Kaiser Wilhelm Platz 1               #
                  #                 D-45470 Muelheim/Ruhr               #
                  #                      Germany                        #
                  #                                                     #
                  #                  All rights reserved                #
                  #                        -***-                        #
                  #######################################################


                         Program Version 5.0.3 -  RELEASE  -


 With contributions from (in alphabetic order):
   Daniel Aravena         : Magnetic Suceptibility
   Michael Atanasov       : Ab Initio Ligand Field Theory (pilot matlab implementation)
   Alexander A. Auer      : GIAO ZORA, VPT2 properties, NMR spectrum
   Ute Becker             : Parallelization
   Giovanni Bistoni       : ED, misc. LED, open-shell LED, HFLD
   Martin Brehm           : Molecular dynamics
   Dmytro Bykov           : SCF Hessian
   Vijay G. Chilkuri      : MRCI spin determinant printing, contributions to CSF-ICE
   Dipayan Datta          : RHF DLPNO-CCSD density
   Achintya Kumar Dutta   : EOM-CC, STEOM-CC
   Dmitry Ganyushin       : Spin-Orbit,Spin-Spin,Magnetic field MRCI
   Miquel Garcia          : C-PCM and meta-GGA Hessian, CC/C-PCM, Gaussian charge scheme
   Yang Guo               : DLPNO-NEVPT2, F12-NEVPT2, CIM, IAO-localization
   Andreas Hansen         : Spin unrestricted coupled pair/coupled cluster methods
   Benjamin Helmich-Paris : MC-RPA, TRAH-SCF, COSX integrals
   Lee Huntington         : MR-EOM, pCC
   Robert Izsak           : Overlap fitted RIJCOSX, COSX-SCS-MP3, EOM
   Marcus Kettner         : VPT2
   Christian Kollmar      : KDIIS, OOCD, Brueckner-CCSD(T), CCSD density, CASPT2, CASPT2-K
   Simone Kossmann        : Meta GGA functionals, TD-DFT gradient, OOMP2, MP2 Hessian
   Martin Krupicka        : Initial AUTO-CI
   Lucas Lang             : DCDCAS
   Marvin Lechner         : AUTO-CI (C++ implementation), FIC-MRCC
   Dagmar Lenk            : GEPOL surface, SMD
   Dimitrios Liakos       : Extrapolation schemes; Compound Job, initial MDCI parallelization
   Dimitrios Manganas     : Further ROCIS development; embedding schemes
   Dimitrios Pantazis     : SARC Basis sets
   Anastasios Papadopoulos: AUTO-CI, single reference methods and gradients
   Taras Petrenko         : DFT Hessian,TD-DFT gradient, ASA, ECA, R-Raman, ABS, FL, XAS/XES, NRVS
   Peter Pinski           : DLPNO-MP2, DLPNO-MP2 Gradient
   Christoph Reimann      : Effective Core Potentials
   Marius Retegan         : Local ZFS, SOC
   Christoph Riplinger    : Optimizer, TS searches, QM/MM, DLPNO-CCSD(T), (RO)-DLPNO pert. Triples
   Tobias Risthaus        : Range-separated hybrids, TD-DFT gradient, RPA, STAB
   Michael Roemelt        : Original ROCIS implementation
   Masaaki Saitow         : Open-shell DLPNO-CCSD energy and density
   Barbara Sandhoefer     : DKH picture change effects
   Avijit Sen             : IP-ROCIS
   Kantharuban Sivalingam : CASSCF convergence, NEVPT2, FIC-MRCI
   Bernardo de Souza      : ESD, SOC TD-DFT
   Georgi Stoychev        : AutoAux, RI-MP2 NMR, DLPNO-MP2 response
   Willem Van den Heuvel  : Paramagnetic NMR
   Boris Wezisla          : Elementary symmetry handling
   Frank Wennmohs         : Technical directorship


 We gratefully acknowledge several colleagues who have allowed us to
 interface, adapt or use parts of their codes:
   Stefan Grimme, W. Hujo, H. Kruse, P. Pracht,  : VdW corrections, initial TS optimization,
                  C. Bannwarth, S. Ehlert          DFT functionals, gCP, sTDA/sTD-DF
   Ed Valeev, F. Pavosevic, A. Kumar             : LibInt (2-el integral package), F12 methods
   Garnet Chan, S. Sharma, J. Yang, R. Olivares  : DMRG
   Ulf Ekstrom                                   : XCFun DFT Library
   Mihaly Kallay                                 : mrcc  (arbitrary order and MRCC methods)
   Jiri Pittner, Ondrej Demel                    : Mk-CCSD
   Frank Weinhold                                : gennbo (NPA and NBO analysis)
   Christopher J. Cramer and Donald G. Truhlar   : smd solvation model
   Lars Goerigk                                  : TD-DFT with DH, B97 family of functionals
   V. Asgeirsson, H. Jonsson                     : NEB implementation
   FAccTs GmbH                                   : IRC, NEB, NEB-TS, DLPNO-Multilevel, CI-OPT
                                                   MM, QMMM, 2- and 3-layer-ONIOM, Crystal-QMMM,
                                                   LR-CPCM, SF, NACMEs, symmetry and pop. for TD-DFT,
                                                   nearIR, NL-DFT gradient (VV10), updates on ESD,
                                                   ML-optimized integration grids
   S Lehtola, MJT Oliveira, MAL Marques          : LibXC Library
   Liviu Ungur et al                             : ANISO software


 Your calculation uses the libint2 library for the computation of 2-el integrals
 For citations please refer to: http://libint.valeyev.net

 Your ORCA version has been built with support for libXC version: 5.1.0
 For citations please refer to: https://tddft.org/programs/libxc/

 This ORCA versions uses:
   CBLAS   interface :  Fast vector & matrix operations
   LAPACKE interface :  Fast linear algebra routines
   SCALAPACK package :  Parallel linear algebra routines
   Shared memory     :  Shared parallel matrices
   BLAS/LAPACK       :  OpenBLAS 0.3.15  USE64BITINT DYNAMIC_ARCH NO_AFFINITY Haswell SINGLE_THREADED
        Core in use  :  Haswell
   Copyright (c) 2011-2014, The OpenBLAS Project


Your calculation utilizes the semiempirical GFN2-xTB method
Please cite in your paper:
C. Bannwarth, Ehlert S., S. Grimme,  J. Chem. Theory Comput., 15, (2019), 1652.
   

================================================================================

================================================================================
                                        WARNINGS
                       Please study these warnings very carefully!
================================================================================


WARNING: Geometry Optimization
  ===> : Switching off AutoStart
         For restart on a previous wavefunction, please use MOREAD

WARNING: Found dipole moment calculation with XTB calculation
  ===> : Switching off dipole moment calculation


WARNING: TRAH-SCF for XTB is not implemented!
  ===> : Turning TRAH off!

================================================================================
                                       INPUT FILE
================================================================================
NAME = /tmp/C01172.inp
|  1> ! XTB2 opt numfreq
|  2> * XYZ 0 1
|  3> O -4.1162 2.0355 -1.0696
|  4> P -3.5976 0.6754 -0.7644
|  5> O -3.1550 -0.1806 -2.0356
|  6> O -4.6621 -0.2890 -0.0744
|  7> O -2.3344 0.5861 0.2235
|  8> C -1.1379 1.2164 -0.2055
|  9> C 0.0151 0.2041 -0.2884
| 10> O 1.1761 0.9113 -0.7455
| 11> C 2.2899 0.0475 -0.9205
| 12> O 3.3641 0.8254 -1.4340
| 13> C 2.7266 -0.6056 0.4010
| 14> O 3.8126 -1.5136 0.1504
| 15> C 1.5399 -1.3423 1.0277
| 16> O 1.8531 -1.7488 2.3734
| 17> C 0.2828 -0.4581 1.0784
| 18> O -0.8091 -1.2806 1.5116
| 19> H -3.8397 -0.1678 -2.7281
| 20> H -5.1267 0.1548 0.6602
| 21> H -0.8985 2.0141 0.5088
| 22> H -1.2707 1.7089 -1.1793
| 23> H -0.2606 -0.5658 -1.0219
| 24> H 2.0642 -0.7113 -1.6803
| 25> H 3.3341 1.6548 -0.9253
| 26> H 3.1054 0.1514 1.1003
| 27> H 4.4730 -1.0115 -0.3646
| 28> H 1.3396 -2.2687 0.4727
| 29> H 1.0386 -2.1753 2.7060
| 30> H 0.4255 0.3133 1.8474
| 31> H -1.6321 -0.7646 1.3759
| 32> *
| 33> 
| 34>                          ****END OF INPUT****
================================================================================

                       *****************************
                       * Geometry Optimization Run *
                       *****************************

Geometry optimization settings:
Update method            Update   .... BFGS
Choice of coordinates    CoordSys .... Z-matrix Internals
Initial Hessian          InHess   .... Almoef's Model

Convergence Tolerances:
Energy Change            TolE     ....  5.0000e-06 Eh
Max. Gradient            TolMAXG  ....  3.0000e-04 Eh/bohr
RMS Gradient             TolRMSG  ....  1.0000e-04 Eh/bohr
Max. Displacement        TolMAXD  ....  4.0000e-03 bohr
RMS Displacement         TolRMSD  ....  2.0000e-03 bohr
Strict Convergence                ....  False
------------------------------------------------------------------------------
                        ORCA OPTIMIZATION COORDINATE SETUP
------------------------------------------------------------------------------

The optimization will be done in new redundant internal coordinates
Making redundant internal coordinates   ...  (new redundants) done
Evaluating the initial hessian          ...  (Almloef) done
Evaluating the coordinates              ...  done
Calculating the B-matrix                .... done
Calculating the G-matrix                .... done
Diagonalizing the G-matrix              .... done
Small eigenvalue found = 8.502e-03
Small eigenvalue found = 1.344e-02
Small eigenvalue found = 2.377e-02
The first mode is                       ....   73
The number of degrees of freedom        ....   81

    -----------------------------------------------------------------
                    Redundant Internal Coordinates


    -----------------------------------------------------------------
         Definition                    Initial Value    Approx d2E/dq
    -----------------------------------------------------------------
      1. B(P   1,O   0)                  1.4873         1.315786   
      2. B(O   2,P   1)                  1.5952         0.885171   
      3. B(O   3,P   1)                  1.5935         0.890544   
      4. B(O   4,P   1)                  1.6061         0.850309   
      5. B(C   5,O   4)                  1.4188         0.503456   
      6. B(C   6,C   5)                  1.5366         0.364673   
      7. B(O   7,C   6)                  1.4342         0.475688   
      8. B(C   8,O   7)                  1.4203         0.500602   
      9. B(O   9,C   8)                  1.4222         0.497126   
     10. B(C  10,C   8)                  1.5374         0.363552   
     11. B(O  11,C  10)                  1.4376         0.469841   
     12. B(C  12,C  10)                  1.5309         0.372305   
     13. B(O  13,C  12)                  1.4402         0.465314   
     14. B(C  14,C  12)                  1.5378         0.363086   
     15. B(C  14,C   6)                  1.5422         0.357230   
     16. B(O  15,C  14)                  1.4340         0.476041   
     17. B(H  16,O   2)                  0.9739         0.494023   
     18. B(H  17,O   3)                  0.9759         0.490392   
     19. B(H  18,C   5)                  1.0972         0.350692   
     20. B(H  19,C   5)                  1.0993         0.347995   
     21. B(H  20,C   6)                  1.0985         0.348985   
     22. B(H  21,C   8)                  1.0973         0.350603   
     23. B(H  22,O   9)                  0.9734         0.494913   
     24. B(H  23,C  10)                  1.0980         0.349697   
     25. B(H  24,O  11)                  0.9765         0.489462   
     26. B(H  25,C  12)                  1.0983         0.349228   
     27. B(H  26,O  13)                  0.9777         0.487188   
     28. B(H  27,C  14)                  1.0985         0.348983   
     29. B(H  28,O  15)                  0.9808         0.481678   
     30. A(O   2,P   1,O   3)          101.8675         0.560440   
     31. A(O   0,P   1,O   4)          116.8280         0.599326   
     32. A(O   3,P   1,O   4)          103.0269         0.556172   
     33. A(O   2,P   1,O   4)          104.0109         0.555532   
     34. A(O   0,P   1,O   2)          115.0844         0.603988   
     35. A(O   0,P   1,O   3)          114.1656         0.604694   
     36. A(P   1,O   2,H  16)          111.3776         0.416273   
     37. A(P   1,O   3,H  17)          111.6373         0.416174   
     38. A(P   1,O   4,C   5)          116.9100         0.466886   
     39. A(C   6,C   5,H  18)          110.5099         0.321640   
     40. A(H  18,C   5,H  19)          106.1011         0.288087   
     41. A(O   4,C   5,C   6)          110.8823         0.378520   
     42. A(O   4,C   5,H  19)          111.4078         0.336763   
     43. A(C   6,C   5,H  19)          109.7555         0.321233   
     44. A(O   4,C   5,H  18)          108.0679         0.337197   
     45. A(C  14,C   6,H  20)          109.5363         0.320301   
     46. A(O   7,C   6,C  14)          110.7124         0.373495   
     47. A(C   5,C   6,O   7)          107.4438         0.374826   
     48. A(C   5,C   6,C  14)          111.4276         0.359109   
     49. A(O   7,C   6,H  20)          109.6293         0.333759   
     50. A(C   5,C   6,H  20)          108.0244         0.321383   
     51. A(C   6,O   7,C   8)          111.9738         0.393547   
     52. A(O   9,C   8,C  10)          109.1572         0.377491   
     53. A(O   7,C   8,C  10)          112.0364         0.377946   
     54. A(C  10,C   8,H  21)          111.0916         0.321464   
     55. A(O   9,C   8,H  21)          106.4745         0.336473   
     56. A(O   7,C   8,H  21)          110.1565         0.336863   
     57. A(O   7,C   8,O   9)          107.7061         0.396601   
     58. A(C   8,O   9,H  22)          104.7185         0.353437   
     59. A(C   8,C  10,C  12)          109.6402         0.361458   
     60. A(C   8,C  10,O  11)          109.4543         0.373828   
     61. A(C  12,C  10,H  23)          109.7840         0.322583   
     62. A(O  11,C  10,H  23)          106.6106         0.333188   
     63. A(C   8,C  10,H  23)          110.6445         0.321328   
     64. A(O  11,C  10,C  12)          110.6705         0.375366   
     65. A(C  10,O  11,H  24)          106.1455         0.349426   
     66. A(C  14,C  12,H  25)          110.6439         0.321190   
     67. A(O  13,C  12,H  25)          105.8868         0.332579   
     68. A(C  10,C  12,H  25)          109.9005         0.322512   
     69. A(O  13,C  12,C  14)          108.0147         0.373122   
     70. A(C  10,C  12,C  14)          111.7454         0.361379   
     71. A(C  10,C  12,O  13)          110.4717         0.374739   
     72. A(C  12,O  13,H  26)          105.0589         0.348582   
     73. A(O  15,C  14,H  27)          106.8700         0.333800   
     74. A(C  12,C  14,H  27)          108.7024         0.321153   
     75. A(C  12,C  14,O  15)          107.6153         0.374592   
     76. A(C   6,C  14,H  27)          109.9647         0.320300   
     77. A(C   6,C  14,O  15)          112.4480         0.373542   
     78. A(C   6,C  14,C  12)          111.0746         0.358842   
     79. A(C  14,O  15,H  28)          107.1796         0.349254   
     80. D(H  16,O   2,P   1,O   3)     75.4616         0.013540   
     81. D(H  16,O   2,P   1,O   0)    -48.6112         0.013540   
     82. D(H  16,O   2,P   1,O   4)   -177.6906         0.013540   
     83. D(H  17,O   3,P   1,O   4)     80.6969         0.013698   
     84. D(H  17,O   3,P   1,O   2)   -171.6924         0.013698   
     85. D(H  17,O   3,P   1,O   0)    -47.0041         0.013698   
     86. D(C   5,O   4,P   1,O   3)    172.3966         0.012545   
     87. D(C   5,O   4,P   1,O   2)     66.4176         0.012545   
     88. D(C   5,O   4,P   1,O   0)    -61.5965         0.012545   
     89. D(H  18,C   5,O   4,P   1)    117.4849         0.020047   
     90. D(C   6,C   5,O   4,P   1)   -121.2558         0.020047   
     91. D(H  19,C   5,O   4,P   1)      1.3021         0.020047   
     92. D(O   7,C   6,C   5,H  19)     55.6384         0.010651   
     93. D(O   7,C   6,C   5,H  18)    -61.0392         0.010651   
     94. D(H  20,C   6,C   5,H  18)   -179.2389         0.010651   
     95. D(H  20,C   6,C   5,H  19)    -62.5612         0.010651   
     96. D(C  14,C   6,C   5,H  19)    177.0760         0.010651   
     97. D(C  14,C   6,C   5,H  18)     60.3984         0.010651   
     98. D(C  14,C   6,C   5,O   4)    -59.4118         0.010651   
     99. D(O   7,C   6,C   5,O   4)    179.1505         0.010651   
    100. D(H  20,C   6,C   5,O   4)     60.9509         0.010651   
    101. D(C   8,O   7,C   6,H  20)    -59.9498         0.017844   
    102. D(C   8,O   7,C   6,C  14)     61.0094         0.017844   
    103. D(C   8,O   7,C   6,C   5)   -177.1061         0.017844   
    104. D(H  21,C   8,O   7,C   6)     61.4739         0.019813   
    105. D(C  10,C   8,O   7,C   6)    -62.7289         0.019813   
    106. D(O   9,C   8,O   7,C   6)    177.2147         0.019813   
    107. D(H  22,O   9,C   8,H  21)    160.2048         0.019531   
    108. D(H  22,O   9,C   8,C  10)    -79.7951         0.019531   
    109. D(H  22,O   9,C   8,O   7)     42.0653         0.019531   
    110. D(O  11,C  10,C   8,O   7)    177.2879         0.010589   
    111. D(H  23,C  10,C   8,O   9)     53.6917         0.010589   
    112. D(H  23,C  10,C   8,O   7)    -65.5145         0.010589   
    113. D(C  12,C  10,C   8,H  21)    -67.9625         0.010589   
    114. D(C  12,C  10,C   8,O   9)    174.9235         0.010589   
    115. D(C  12,C  10,C   8,O   7)     55.7174         0.010589   
    116. D(O  11,C  10,C   8,H  21)     53.6081         0.010589   
    117. D(H  23,C  10,C   8,H  21)    170.8057         0.010589   
    118. D(O  11,C  10,C   8,O   9)    -63.5059         0.010589   
    119. D(H  24,O  11,C  10,H  23)    -68.8957         0.017400   
    120. D(H  24,O  11,C  10,C  12)    171.7593         0.017400   
    121. D(H  24,O  11,C  10,C   8)     50.8118         0.017400   
    122. D(H  25,C  12,C  10,H  23)   -164.1264         0.011072   
    123. D(H  25,C  12,C  10,O  11)    -46.7128         0.011072   
    124. D(H  25,C  12,C  10,C   8)     74.1245         0.011072   
    125. D(C  14,C  12,C  10,H  23)     72.6392         0.011072   
    126. D(C  14,C  12,C  10,O  11)   -169.9471         0.011072   
    127. D(C  14,C  12,C  10,C   8)    -49.1098         0.011072   
    128. D(O  13,C  12,C  10,H  23)    -47.6460         0.011072   
    129. D(O  13,C  12,C  10,O  11)     69.7676         0.011072   
    130. D(O  13,C  12,C  10,C   8)   -169.3951         0.011072   
    131. D(H  26,O  13,C  12,H  25)    -63.1784         0.017062   
    132. D(H  26,O  13,C  12,C  14)     55.3772         0.017062   
    133. D(H  26,O  13,C  12,C  10)    177.8738         0.017062   
    134. D(H  27,C  14,C   6,O   7)     66.6066         0.010249   
    135. D(H  27,C  14,C   6,C   5)    -52.9098         0.010249   
    136. D(O  15,C  14,C   6,H  20)    -53.4219         0.010249   
    137. D(O  15,C  14,C   6,O   7)   -174.4362         0.010249   
    138. D(O  15,C  14,C   6,C   5)     66.0474         0.010249   
    139. D(C  12,C  14,C   6,H  20)     67.2498         0.010249   
    140. D(C  12,C  14,C   6,O   7)    -53.7646         0.010249   
    141. D(H  27,C  14,C   6,H  20)   -172.3790         0.010249   
    142. D(C  12,C  14,C   6,C   5)   -173.2810         0.010249   
    143. D(H  27,C  14,C  12,H  25)    165.1174         0.010564   
    144. D(H  27,C  14,C  12,C  10)    -72.0707         0.010564   
    145. D(O  15,C  14,C  12,H  25)     49.7172         0.010564   
    146. D(O  15,C  14,C  12,O  13)    -65.7580         0.010564   
    147. D(O  15,C  14,C  12,C  10)    172.5291         0.010564   
    148. D(C   6,C  14,C  12,H  25)    -73.7668         0.010564   
    149. D(H  27,C  14,C  12,O  13)     49.6421         0.010564   
    150. D(C   6,C  14,C  12,O  13)    170.7580         0.010564   
    151. D(C   6,C  14,C  12,C  10)     49.0451         0.010564   
    152. D(H  28,O  15,C  14,H  27)     74.1769         0.017871   
    153. D(H  28,O  15,C  14,C  12)   -169.2177         0.017871   
    154. D(H  28,O  15,C  14,C   6)    -46.5760         0.017871   
    -----------------------------------------------------------------

Number of atoms                         .... 29
Number of degrees of freedom            .... 154

         *************************************************************
         *                GEOMETRY OPTIMIZATION CYCLE   1            *
         *************************************************************
---------------------------------
CARTESIAN COORDINATES (ANGSTROEM)
---------------------------------
  O    -4.116200    2.035500   -1.069600
  P    -3.597600    0.675400   -0.764400
  O    -3.155000   -0.180600   -2.035600
  O    -4.662100   -0.289000   -0.074400
  O    -2.334400    0.586100    0.223500
  C    -1.137900    1.216400   -0.205500
  C     0.015100    0.204100   -0.288400
  O     1.176100    0.911300   -0.745500
  C     2.289900    0.047500   -0.920500
  O     3.364100    0.825400   -1.434000
  C     2.726600   -0.605600    0.401000
  O     3.812600   -1.513600    0.150400
  C     1.539900   -1.342300    1.027700
  O     1.853100   -1.748800    2.373400
  C     0.282800   -0.458100    1.078400
  O    -0.809100   -1.280600    1.511600
  H    -3.839700   -0.167800   -2.728100
  H    -5.126700    0.154800    0.660200
  H    -0.898500    2.014100    0.508800
  H    -1.270700    1.708900   -1.179300
  H    -0.260600   -0.565800   -1.021900
  H     2.064200   -0.711300   -1.680300
  H     3.334100    1.654800   -0.925300
  H     3.105400    0.151400    1.100300
  H     4.473000   -1.011500   -0.364600
  H     1.339600   -2.268700    0.472700
  H     1.038600   -2.175300    2.706000
  H     0.425500    0.313300    1.847400
  H    -1.632100   -0.764600    1.375900

----------------------------
CARTESIAN COORDINATES (A.U.)
----------------------------
  NO LB    ZA    FRAG    MASS        X           Y           Z
   0 O   8.0000    0    15.999   -7.778491    3.846538   -2.021251
   1 P  15.0000    0    30.974   -6.798479    1.276321   -1.444507
   2 O   8.0000    0    15.999   -5.962086   -0.341285   -3.846727
   3 O   8.0000    0    15.999   -8.810092   -0.546131   -0.140596
   4 O   8.0000    0    15.999   -4.411377    1.107568    0.422354
   5 C   6.0000    0    12.011   -2.150319    2.298663   -0.388339
   6 C   6.0000    0    12.011    0.028535    0.385693   -0.544997
   7 O   8.0000    0    15.999    2.222507    1.722107   -1.408791
   8 C   6.0000    0    12.011    4.327284    0.089762   -1.739493
   9 O   8.0000    0    15.999    6.357228    1.559780   -2.709867
  10 C   6.0000    0    12.011    5.152527   -1.144418    0.757780
  11 O   8.0000    0    15.999    7.204770   -2.860289    0.284215
  12 C   6.0000    0    12.011    2.909989   -2.536579    1.942072
  13 O   8.0000    0    15.999    3.501851   -3.304753    4.485076
  14 C   6.0000    0    12.011    0.534415   -0.865684    2.037881
  15 O   8.0000    0    15.999   -1.528977   -2.419983    2.856510
  16 H   1.0000    0     1.008   -7.255981   -0.317096   -5.155362
  17 H   1.0000    0     1.008   -9.688059    0.292530    1.247597
  18 H   1.0000    0     1.008   -1.697919    3.806097    0.961493
  19 H   1.0000    0     1.008   -2.401275    3.229353   -2.228554
  20 H   1.0000    0     1.008   -0.492463   -1.069207   -1.931111
  21 H   1.0000    0     1.008    3.900773   -1.344162   -3.175307
  22 H   1.0000    0     1.008    6.300536    3.127119   -1.748564
  23 H   1.0000    0     1.008    5.868356    0.286105    2.079266
  24 H   1.0000    0     1.008    8.452745   -1.911458   -0.688994
  25 H   1.0000    0     1.008    2.531477   -4.287222    0.893274
  26 H   1.0000    0     1.008    1.962670   -4.110721    5.113599
  27 H   1.0000    0     1.008    0.804078    0.592051    3.491080
  28 H   1.0000    0     1.008   -3.084222   -1.444885    2.600074

      -----------------------------------------------------------      
     |                   =====================                   |     
     |                           x T B                           |     
     |                   =====================                   |     
     |                         S. Grimme                         |     
     |          Mulliken Center for Theoretical Chemistry        |     
     |                    University of Bonn                     |     
      -----------------------------------------------------------      

   * xtb version 6.5.1 (579679a) compiled by 'ehlert@majestix' on 2022-07-11

   xtb is free software: you can redistribute it and/or modify it under
   the terms of the GNU Lesser General Public License as published by
   the Free Software Foundation, either version 3 of the License, or
   (at your option) any later version.
   
   xtb is distributed in the hope that it will be useful,
   but WITHOUT ANY WARRANTY; without even the implied warranty of
   MERCHANTABILITY or FITNESS FOR A PARTICULAR PURPOSE.  See the
   GNU Lesser General Public License for more details.
   
   Cite this work as:
   * C. Bannwarth, E. Caldeweyher, S. Ehlert, A. Hansen, P. Pracht,
     J. Seibert, S. Spicher, S. Grimme, WIREs Comput. Mol. Sci., 2020, 11,
     e01493. DOI: 10.1002/wcms.1493
   
   for GFN2-xTB:
   * C. Bannwarth, S. Ehlert and S. Grimme., J. Chem. Theory Comput., 2019,
     15, 1652-1671. DOI: 10.1021/acs.jctc.8b01176
   for GFN1-xTB:
   * S. Grimme, C. Bannwarth, P. Shushkov, J. Chem. Theory Comput., 2017,
     13, 1989-2009. DOI: 10.1021/acs.jctc.7b00118
   for GFN0-xTB:
   * P. Pracht, E. Caldeweyher, S. Ehlert, S. Grimme, ChemRxiv, 2019, preprint.
     DOI: 10.26434/chemrxiv.8326202.v1
   for GFN-FF:
   * S. Spicher and S. Grimme, Angew. Chem. Int. Ed., 2020, 59, 15665-15673.
     DOI: 10.1002/anie.202004239
   
   for ALPB and GBSA implicit solvation:
   * S. Ehlert, M. Stahn, S. Spicher, S. Grimme, J. Chem. Theory Comput.,
     2021, 17, 4250-4261. DOI: 10.1021/acs.jctc.1c00471
   
   for DFT-D4:
   * E. Caldeweyher, C. Bannwarth and S. Grimme, J. Chem. Phys., 2017,
     147, 034112. DOI: 10.1063/1.4993215
   * E. Caldeweyher, S. Ehlert, A. Hansen, H. Neugebauer, S. Spicher,
     C. Bannwarth and S. Grimme, J. Chem. Phys., 2019, 150, 154122.
     DOI: 10.1063/1.5090222
   * E. Caldeweyher, J.-M. Mewes, S. Ehlert and S. Grimme, Phys. Chem. Chem. Phys.
     2020, 22, 8499-8512. DOI: 10.1039/D0CP00502A
   
   for sTDA-xTB:
   * S. Grimme and C. Bannwarth, J. Chem. Phys., 2016, 145, 054103.
     DOI: 10.1063/1.4959605
   
   in the mass-spec context:
   * V. Asgeirsson, C. Bauer and S. Grimme, Chem. Sci., 2017, 8, 4879.
     DOI: 10.1039/c7sc00601b
   * J. Koopman and S. Grimme, ACS Omega 2019, 4, 12, 15120-15133.
     DOI: 10.1021/acsomega.9b02011
   
   for metadynamics refer to:
   * S. Grimme, J. Chem. Theory Comput., 2019, 155, 2847-2862
     DOI: 10.1021/acs.jctc.9b00143
   
   for SPH calculations refer to:
   * S. Spicher and S. Grimme, J. Chem. Theory Comput., 2021, 17, 1701-1714
     DOI: 10.1021/acs.jctc.0c01306
   
   with help from (in alphabetical order)
   P. Atkinson, C. Bannwarth, F. Bohle, G. Brandenburg, E. Caldeweyher
   M. Checinski, S. Dohm, S. Ehlert, S. Ehrlich, I. Gerasimov, C. Hölzer
   A. Katbashev, J. Koopman, C. Lavigne, S. Lehtola, F. März, M. Müller,
   F. Musil, H. Neugebauer, J. Pisarek, C. Plett, P. Pracht, F. Pultar,
   J. Seibert, P. Shushkov, S. Spicher, M. Stahn, M. Steiner, T. Strunk,
   J. Stückrath, T. Rose, and J. Unsleber
   
 * started run on 2023/12/04 at 14:30:17.362     

           -------------------------------------------------
          |                Calculation Setup                |
           -------------------------------------------------

          program call               : otool_xtb /tmp/C01172_XTB.xyz --grad -c 0 -u 0 -P 1 --namespace /tmp/C01172 --input /tmp/C01172_XTB.input.tmp --acc 1.000000
          calculation namespace      : /tmp/C01172
          coordinate file            : /tmp/C01172_XTB.xyz
          omp threads                :                     1

   ID    Z sym.   atoms
    1    8 O      1, 3-5, 8, 10, 12, 14, 16
    2   15 P      2
    3    6 C      6, 7, 9, 11, 13, 15
    4    1 H      17-29

           -------------------------------------------------
          |                 G F N 2 - x T B                 |
           -------------------------------------------------

        Reference                      10.1021/acs.jctc.8b01176
      * Hamiltonian:
        H0-scaling (s, p, d)           1.850000    2.230000    2.230000
        zeta-weighting                 0.500000
      * Dispersion:
        s8                             2.700000
        a1                             0.520000
        a2                             5.000000
        s9                             5.000000
      * Repulsion:
        kExp                           1.500000    1.000000
        rExp                           1.000000
      * Coulomb:
        alpha                          2.000000
        third order                    shell-resolved
        anisotropic                    true
        a3                             3.000000
        a5                             4.000000
        cn-shift                       1.200000
        cn-exp                         4.000000
        max-rad                        5.000000


          ...................................................
          :                      SETUP                      :
          :.................................................:
          :  # basis functions                  83          :
          :  # atomic orbitals                  82          :
          :  # shells                           46          :
          :  # electrons                        96          :
          :  max. iterations                   250          :
          :  Hamiltonian                  GFN2-xTB          :
          :  restarted?                      false          :
          :  GBSA solvation                  false          :
          :  PC potential                    false          :
          :  electronic temp.          300.0000000     K    :
          :  accuracy                    1.0000000          :
          :  -> integral cutoff          0.2500000E+02      :
          :  -> integral neglect         0.1000000E-07      :
          :  -> SCF convergence          0.1000000E-05 Eh   :
          :  -> wf. convergence          0.1000000E-03 e    :
          :  Broyden damping             0.4000000          :
          ...................................................

 iter      E             dE          RMSdq      gap      omega  full diag
   1    -59.0001585 -0.590002E+02  0.656E+00    9.24       0.0  T
   2    -59.0773759 -0.772174E-01  0.384E+00    8.77       1.0  T
   3    -59.0897418 -0.123659E-01  0.904E-01    8.18       1.0  T
   4    -59.0925678 -0.282602E-02  0.429E-01    8.16       1.0  T
   5    -59.0929686 -0.400789E-03  0.128E-01    8.17       1.0  T
   6    -59.0930633 -0.947285E-04  0.622E-02    8.17       1.0  T
   7    -59.0930716 -0.835109E-05  0.197E-02    8.17       1.0  T
   8    -59.0930727 -0.102018E-05  0.882E-03    8.17       2.1  T
   9    -59.0930728 -0.184409E-06  0.242E-03    8.17       7.7  T
  10    -59.0930729 -0.257766E-07  0.111E-03    8.17      16.8  T
  11    -59.0930729 -0.309627E-08  0.327E-04    8.17      56.9  T
  12    -59.0930729 -0.384269E-09  0.154E-04    8.17     120.7  T

   *** convergence criteria satisfied after 12 iterations ***

         #    Occupation            Energy/Eh            Energy/eV
      -------------------------------------------------------------
         1        2.0000           -0.7661828             -20.8489
       ...           ...                  ...                  ...
        42        2.0000           -0.4584281             -12.4745
        43        2.0000           -0.4518141             -12.2945
        44        2.0000           -0.4497917             -12.2395
        45        2.0000           -0.4482228             -12.1968
        46        2.0000           -0.4306929             -11.7197
        47        2.0000           -0.4202499             -11.4356
        48        2.0000           -0.4131426             -11.2422 (HOMO)
        49                         -0.1128648              -3.0712 (LUMO)
        50                         -0.0769325              -2.0934
        51                         -0.0488462              -1.3292
        52                         -0.0422168              -1.1488
        53                         -0.0289493              -0.7878
       ...                                ...                  ...
        82                          1.1663649              31.7384
      -------------------------------------------------------------
                  HL-Gap            0.3002778 Eh            8.1710 eV
             Fermi-level           -0.2630037 Eh           -7.1567 eV

 SCC (total)                   0 d,  0 h,  0 min,  0.037 sec
 SCC setup                      ...        0 min,  0.000 sec (  0.527%)
 Dispersion                     ...        0 min,  0.000 sec (  0.597%)
 classical contributions        ...        0 min,  0.000 sec (  0.133%)
 integral evaluation            ...        0 min,  0.005 sec ( 14.819%)
 iterations                     ...        0 min,  0.015 sec ( 39.488%)
 molecular gradient             ...        0 min,  0.016 sec ( 43.810%)
 printout                       ...        0 min,  0.000 sec (  0.400%)

         :::::::::::::::::::::::::::::::::::::::::::::::::::::
         ::                     SUMMARY                     ::
         :::::::::::::::::::::::::::::::::::::::::::::::::::::
         :: total energy             -58.735859822071 Eh    ::
         :: gradient norm              0.082606047163 Eh/a0 ::
         :: HOMO-LUMO gap              8.170974466746 eV    ::
         ::.................................................::
         :: SCC energy               -59.093072873761 Eh    ::
         :: -> isotropic ES            0.223525104365 Eh    ::
         :: -> anisotropic ES         -0.007123843469 Eh    ::
         :: -> anisotropic XC         -0.007628420112 Eh    ::
         :: -> dispersion             -0.025959678063 Eh    ::
         :: repulsion energy           0.357077120676 Eh    ::
         :: add. restraining           0.000000000000 Eh    ::
         :: total charge               0.000000000000 e     ::
         :::::::::::::::::::::::::::::::::::::::::::::::::::::


Property printout bound to 'properties.out'

           -------------------------------------------------
          | TOTAL ENERGY              -58.735859822071 Eh   |
          | GRADIENT NORM               0.082606047163 Eh/α |
          | HOMO-LUMO GAP               8.170974466746 eV   |
           -------------------------------------------------

------------------------------------------------------------------------
 * finished run on 2023/12/04 at 14:30:17.410     
------------------------------------------------------------------------
 total:
 * wall-time:     0 d,  0 h,  0 min,  0.049 sec
 *  cpu-time:     0 d,  0 h,  0 min,  0.048 sec
 * ratio c/w:     0.987 speedup
 SCF:
 * wall-time:     0 d,  0 h,  0 min,  0.037 sec
 *  cpu-time:     0 d,  0 h,  0 min,  0.036 sec
 * ratio c/w:     0.969 speedup


-------------------------   --------------------
FINAL SINGLE POINT ENERGY       -58.735859822070
-------------------------   --------------------

------------------------------------------------------------------------------
                         ORCA GEOMETRY RELAXATION STEP
------------------------------------------------------------------------------

Reading the OPT-File                    .... done
Getting information on internals        .... done
Copying old internal coords+grads       .... done
Making the new internal coordinates     .... (new redundants).... done
Validating the new internal coordinates .... (new redundants).... done
Calculating the B-matrix                .... done
Calculating the G,G- and P matrices     .... done
Transforming gradient to internals      .... done
Projecting the internal gradient        .... done
Number of atoms                         ....  29
Number of internal coordinates          .... 154
Current Energy                          ....   -58.735859822 Eh
Current gradient norm                   ....     0.082606047 Eh/bohr
Maximum allowed component of the step   ....  0.300
Current trust radius                    ....  0.300
Evaluating the initial hessian          ....  (Almloef) done
Projecting the Hessian                  .... done
Forming the augmented Hessian           .... done
Diagonalizing the augmented Hessian     .... done
Last element of RFO vector              ....  0.969713738
Lowest eigenvalues of augmented Hessian:
 -0.010223071  0.010684097  0.012764544  0.013584031  0.013735476
Length of the computed step             ....  0.251872552
The final length of the internal step   ....  0.251872552
Converting the step to cartesian space:
 Initial RMS(Int)=    0.0202964686
Transforming coordinates:
 Iter   0:  RMS(Cart)=    0.0956318467 RMS(Int)=    0.0201961550
 Iter   1:  RMS(Cart)=    0.0040354436 RMS(Int)=    0.0022235469
 Iter   2:  RMS(Cart)=    0.0003491254 RMS(Int)=    0.0001125844
 Iter   3:  RMS(Cart)=    0.0000334315 RMS(Int)=    0.0000219173
 Iter   4:  RMS(Cart)=    0.0000032509 RMS(Int)=    0.0000014698
 Iter   5:  RMS(Cart)=    0.0000003201 RMS(Int)=    0.0000002414
 Iter   6:  RMS(Cart)=    0.0000000328 RMS(Int)=    0.0000000197
done
Storing new coordinates                 .... done

                                .--------------------.
          ----------------------|Geometry convergence|-------------------------
          Item                value                   Tolerance       Converged
          ---------------------------------------------------------------------
          RMS gradient        0.0052853677            0.0001000000      NO
          MAX gradient        0.0301138462            0.0003000000      NO
          RMS step            0.0202964686            0.0020000000      NO
          MAX step            0.0671870050            0.0040000000      NO
          ........................................................
          Max(Bonds)      0.0213      Max(Angles)    1.71
          Max(Dihed)        3.85      Max(Improp)    0.00
          ---------------------------------------------------------------------

The optimization has not yet converged - more geometry cycles are needed


    ---------------------------------------------------------------------------
                         Redundant Internal Coordinates
                            (Angstroem and degrees)

        Definition                    Value    dE/dq     Step     New-Value
    ----------------------------------------------------------------------------
     1. B(P   1,O   0)                1.4873  0.030114 -0.0120    1.4752   
     2. B(O   2,P   1)                1.5952  0.006609 -0.0039    1.5913   
     3. B(O   3,P   1)                1.5935  0.004673 -0.0027    1.5908   
     4. B(O   4,P   1)                1.6061  0.005640 -0.0035    1.6026   
     5. B(C   5,O   4)                1.4188  0.002575 -0.0027    1.4161   
     6. B(C   6,C   5)                1.5366  0.002805 -0.0040    1.5326   
     7. B(O   7,C   6)                1.4342  0.014108 -0.0165    1.4177   
     8. B(C   8,O   7)                1.4203  0.008727 -0.0106    1.4097   
     9. B(O   9,C   8)                1.4222  0.019511 -0.0204    1.4019   
    10. B(C  10,C   8)                1.5374  0.001473 -0.0026    1.5348   
    11. B(O  11,C  10)                1.4376  0.019362 -0.0213    1.4162   
    12. B(C  12,C  10)                1.5309  0.009087 -0.0111    1.5198   
    13. B(O  13,C  12)                1.4402  0.017069 -0.0190    1.4212   
    14. B(C  14,C  12)                1.5378  0.004642 -0.0044    1.5334   
    15. B(C  14,C   6)                1.5422  0.002686 -0.0036    1.5386   
    16. B(O  15,C  14)                1.4340  0.015049 -0.0164    1.4176   
    17. B(H  16,O   2)                0.9739  0.015391 -0.0162    0.9578   
    18. B(H  17,O   3)                0.9759  0.016630 -0.0176    0.9584   
    19. B(H  18,C   5)                1.0972  0.000846 -0.0012    1.0960   
    20. B(H  19,C   5)                1.0993  0.003613 -0.0053    1.0940   
    21. B(H  20,C   6)                1.0985 -0.001290  0.0019    1.1004   
    22. B(H  21,C   8)                1.0973 -0.000872  0.0013    1.0986   
    23. B(H  22,O   9)                0.9734  0.006652 -0.0070    0.9665   
    24. B(H  23,C  10)                1.0980 -0.001091  0.0016    1.0996   
    25. B(H  24,O  11)                0.9765  0.008662 -0.0092    0.9673   
    26. B(H  25,C  12)                1.0983  0.000007 -0.0000    1.0983   
    27. B(H  26,O  13)                0.9777  0.010547 -0.0112    0.9665   
    28. B(H  27,C  14)                1.0985 -0.001677  0.0025    1.1010   
    29. B(H  28,O  15)                0.9808  0.012457 -0.0134    0.9674   
    30. A(O   2,P   1,O   3)          101.87 -0.005133    0.85    102.72   
    31. A(O   0,P   1,O   4)          116.83  0.001138   -0.42    116.41   
    32. A(O   3,P   1,O   4)          103.03  0.004132   -0.63    102.40   
    33. A(O   2,P   1,O   4)          104.01  0.004975   -0.87    103.14   
    34. A(O   0,P   1,O   2)          115.08 -0.001498    0.33    115.42   
    35. A(O   0,P   1,O   3)          114.17 -0.003375    0.71    114.87   
    36. A(P   1,O   2,H  16)          111.38  0.003125   -0.42    110.96   
    37. A(P   1,O   3,H  17)          111.64  0.001321   -0.18    111.46   
    38. A(P   1,O   4,C   5)          116.91  0.002209   -0.27    116.64   
    39. A(C   6,C   5,H  18)          110.51  0.001743   -0.16    110.35   
    40. A(H  18,C   5,H  19)          106.10 -0.002681    0.87    106.97   
    41. A(O   4,C   5,C   6)          110.88 -0.002392    0.21    111.09   
    42. A(O   4,C   5,H  19)          111.41  0.001717   -0.60    110.81   
    43. A(C   6,C   5,H  19)          109.76  0.002005   -0.56    109.20   
    44. A(O   4,C   5,H  18)          108.07 -0.000388    0.28    108.35   
    45. A(C  14,C   6,H  20)          109.54  0.002273   -0.08    109.46   
    46. A(O   7,C   6,C  14)          110.71  0.000256   -0.33    110.39   
    47. A(C   5,C   6,O   7)          107.44  0.005414   -1.60    105.84   
    48. A(C   5,C   6,C  14)          111.43 -0.005652    1.12    112.55   
    49. A(O   7,C   6,H  20)          109.63 -0.001305    0.21    109.84   
    50. A(C   5,C   6,H  20)          108.02 -0.000983    0.68    108.71   
    51. A(C   6,O   7,C   8)          111.97 -0.001684    0.38    112.35   
    52. A(O   9,C   8,C  10)          109.16 -0.003905    0.79    109.95   
    53. A(O   7,C   8,C  10)          112.04  0.000415   -0.25    111.79   
    54. A(C  10,C   8,H  21)          111.09  0.002725   -0.61    110.49   
    55. A(O   9,C   8,H  21)          106.47  0.000612   -0.11    106.37   
    56. A(O   7,C   8,H  21)          110.16 -0.001482    0.39    110.55   
    57. A(O   7,C   8,O   9)          107.71  0.001565   -0.19    107.51   
    58. A(C   8,O   9,H  22)          104.72 -0.006961    1.10    105.82   
    59. A(C   8,C  10,C  12)          109.64 -0.002304    0.23    109.87   
    60. A(C   8,C  10,O  11)          109.45  0.001468   -0.54    108.92   
    61. A(C  12,C  10,H  23)          109.78  0.001502   -0.23    109.56   
    62. A(O  11,C  10,H  23)          106.61 -0.004248    1.69    108.30   
    63. A(C   8,C  10,H  23)          110.64  0.001287   -0.24    110.41   
    64. A(O  11,C  10,C  12)          110.67  0.002323   -0.90    109.77   
    65. A(C  10,O  11,H  24)          106.15 -0.001810    0.29    106.43   
    66. A(C  14,C  12,H  25)          110.64  0.000332   -0.39    110.25   
    67. A(O  13,C  12,H  25)          105.89 -0.002739    1.71    107.60   
    68. A(C  10,C  12,H  25)          109.90 -0.001003   -0.39    109.51   
    69. A(O  13,C  12,C  14)          108.01 -0.003817    0.56    108.57   
    70. A(C  10,C  12,C  14)          111.75  0.004280   -0.45    111.29   
    71. A(C  10,C  12,O  13)          110.47  0.002553   -0.91    109.56   
    72. A(C  12,O  13,H  26)          105.06 -0.002549    0.41    105.47   
    73. A(O  15,C  14,H  27)          106.87 -0.003870    1.58    108.45   
    74. A(C  12,C  14,H  27)          108.70  0.000618   -0.14    108.56   
    75. A(C  12,C  14,O  15)          107.62  0.004407   -1.44    106.18   
    76. A(C   6,C  14,H  27)          109.96  0.002361   -0.41    109.56   
    77. A(C   6,C  14,O  15)          112.45 -0.001386    0.11    112.56   
    78. A(C   6,C  14,C  12)          111.07 -0.002107    0.32    111.40   
    79. A(C  14,O  15,H  28)          107.18 -0.001643    0.26    107.44   
    80. D(H  16,O   2,P   1,O   3)     75.46 -0.005015    2.49     77.95   
    81. D(H  16,O   2,P   1,O   0)    -48.61  0.003664    0.82    -47.79   
    82. D(H  16,O   2,P   1,O   4)   -177.69 -0.000782    1.83   -175.86   
    83. D(H  17,O   3,P   1,O   4)     80.70 -0.001526    1.71     82.40   
    84. D(H  17,O   3,P   1,O   2)   -171.69  0.003412    0.85   -170.84   
    85. D(H  17,O   3,P   1,O   0)    -47.00 -0.003895    2.25    -44.75   
    86. D(C   5,O   4,P   1,O   3)    172.40 -0.002190    3.71    176.10   
    87. D(C   5,O   4,P   1,O   2)     66.42  0.000438    3.26     69.68   
    88. D(C   5,O   4,P   1,O   0)    -61.60 -0.002547    3.85    -57.75   
    89. D(H  18,C   5,O   4,P   1)    117.48 -0.002563    3.25    120.73   
    90. D(C   6,C   5,O   4,P   1)   -121.26 -0.002130    3.36   -117.90   
    91. D(H  19,C   5,O   4,P   1)      1.30 -0.000044    2.36      3.66   
    92. D(O   7,C   6,C   5,H  19)     55.64 -0.000532   -0.14     55.50   
    93. D(O   7,C   6,C   5,H  18)    -61.04  0.000509   -0.78    -61.82   
    94. D(H  20,C   6,C   5,H  18)   -179.24 -0.000343   -0.52   -179.76   
    95. D(H  20,C   6,C   5,H  19)    -62.56 -0.001383    0.11    -62.45   
    96. D(C  14,C   6,C   5,H  19)    177.08 -0.000123   -0.91    176.17   
    97. D(C  14,C   6,C   5,H  18)     60.40  0.000918   -1.55     58.85   
    98. D(C  14,C   6,C   5,O   4)    -59.41  0.001818   -1.92    -61.34   
    99. D(O   7,C   6,C   5,O   4)    179.15  0.001409   -1.16    177.99   
   100. D(H  20,C   6,C   5,O   4)     60.95  0.000557   -0.90     60.05   
   101. D(C   8,O   7,C   6,H  20)    -59.95 -0.001488    0.37    -59.58   
   102. D(C   8,O   7,C   6,C  14)     61.01  0.000656    0.19     61.20   
   103. D(C   8,O   7,C   6,C   5)   -177.11 -0.002663    0.34   -176.76   
   104. D(H  21,C   8,O   7,C   6)     61.47  0.001330   -0.92     60.55   
   105. D(C  10,C   8,O   7,C   6)    -62.73 -0.001405   -0.25    -62.98   
   106. D(O   9,C   8,O   7,C   6)    177.21  0.002150   -0.95    176.26   
   107. D(H  22,O   9,C   8,H  21)    160.20 -0.000351   -0.45    159.76   
   108. D(H  22,O   9,C   8,C  10)    -79.80  0.001122   -0.80    -80.60   
   109. D(H  22,O   9,C   8,O   7)     42.07  0.000265   -0.75     41.32   
   110. D(O  11,C  10,C   8,O   7)    177.29  0.002732   -1.29    176.00   
   111. D(H  23,C  10,C   8,O   9)     53.69 -0.001165    0.43     54.12   
   112. D(H  23,C  10,C   8,O   7)    -65.51 -0.000806    0.31    -65.21   
   113. D(C  12,C  10,C   8,H  21)    -67.96 -0.000010    0.14    -67.82   
   114. D(C  12,C  10,C   8,O   9)    174.92  0.000027    0.15    175.07   
   115. D(C  12,C  10,C   8,O   7)     55.72  0.000387    0.02     55.74   
   116. D(O  11,C  10,C   8,H  21)     53.61  0.002336   -1.17     52.44   
   117. D(H  23,C  10,C   8,H  21)    170.81 -0.001203    0.43    171.23   
   118. D(O  11,C  10,C   8,O   9)    -63.51  0.002373   -1.17    -64.67   
   119. D(H  24,O  11,C  10,H  23)    -68.90  0.000670   -0.98    -69.88   
   120. D(H  24,O  11,C  10,C  12)    171.76  0.000125   -1.23    170.53   
   121. D(H  24,O  11,C  10,C   8)     50.81  0.000554   -0.59     50.23   
   122. D(H  25,C  12,C  10,H  23)   -164.13  0.003044   -1.25   -165.37   
   123. D(H  25,C  12,C  10,O  11)    -46.71  0.000149    0.14    -46.57   
   124. D(H  25,C  12,C  10,C   8)     74.12  0.001965   -0.95     73.17   
   125. D(C  14,C  12,C  10,H  23)     72.64  0.000363   -0.15     72.49   
   126. D(C  14,C  12,C  10,O  11)   -169.95 -0.002531    1.24   -168.70   
   127. D(C  14,C  12,C  10,C   8)    -49.11 -0.000716    0.15    -48.96   
   128. D(O  13,C  12,C  10,H  23)    -47.65  0.000611    0.07    -47.58   
   129. D(O  13,C  12,C  10,O  11)     69.77 -0.002283    1.46     71.23   
   130. D(O  13,C  12,C  10,C   8)   -169.40 -0.000468    0.36   -169.03   
   131. D(H  26,O  13,C  12,H  25)    -63.18  0.000640   -0.50    -63.68   
   132. D(H  26,O  13,C  12,C  14)     55.38 -0.002323    0.22     55.60   
   133. D(H  26,O  13,C  12,C  10)    177.87  0.002078   -0.55    177.33   
   134. D(H  27,C  14,C   6,O   7)     66.61  0.001832   -0.23     66.37   
   135. D(H  27,C  14,C   6,C   5)    -52.91 -0.001444    1.27    -51.64   
   136. D(O  15,C  14,C   6,H  20)    -53.42 -0.002320    1.55    -51.88   
   137. D(O  15,C  14,C   6,O   7)   -174.44 -0.002344    1.55   -172.89   
   138. D(O  15,C  14,C   6,C   5)     66.05 -0.005619    3.05     69.10   
   139. D(C  12,C  14,C   6,H  20)     67.25  0.000889   -0.00     67.25   
   140. D(C  12,C  14,C   6,O   7)    -53.76  0.000864    0.00    -53.76   
   141. D(H  27,C  14,C   6,H  20)   -172.38  0.001856   -0.23   -172.61   
   142. D(C  12,C  14,C   6,C   5)   -173.28 -0.002411    1.50   -171.78   
   143. D(H  27,C  14,C  12,H  25)    165.12 -0.003714    1.39    166.51   
   144. D(H  27,C  14,C  12,C  10)    -72.07 -0.001747    0.28    -71.79   
   145. D(O  15,C  14,C  12,H  25)     49.72 -0.001804    0.37     50.09   
   146. D(O  15,C  14,C  12,O  13)    -65.76  0.003480   -1.79    -67.55   
   147. D(O  15,C  14,C  12,C  10)    172.53  0.000163   -0.74    171.79   
   148. D(C   6,C  14,C  12,H  25)    -73.77 -0.001700    1.00    -72.77   
   149. D(H  27,C  14,C  12,O  13)     49.64  0.001570   -0.77     48.87   
   150. D(C   6,C  14,C  12,O  13)    170.76  0.003584   -1.16    169.60   
   151. D(C   6,C  14,C  12,C  10)     49.05  0.000267   -0.11     48.93   
   152. D(H  28,O  15,C  14,H  27)     74.18 -0.000987    1.28     75.45   
   153. D(H  28,O  15,C  14,C  12)   -169.22 -0.000037    1.20   -168.02   
   154. D(H  28,O  15,C  14,C   6)    -46.58 -0.000518    0.67    -45.90   
    ----------------------------------------------------------------------------

         *************************************************************
         *                GEOMETRY OPTIMIZATION CYCLE   2            *
         *************************************************************
---------------------------------
CARTESIAN COORDINATES (ANGSTROEM)
---------------------------------
  O    -3.994304    2.028403   -1.222372
  P    -3.568212    0.680505   -0.800499
  O    -3.097492   -0.285257   -1.974323
  O    -4.690818   -0.177765   -0.069942
  O    -2.350524    0.610597    0.239124
  C    -1.137457    1.221559   -0.161633
  C    -0.005656    0.192241   -0.253352
  O     1.132421    0.907382   -0.704130
  C     2.246711    0.068327   -0.908027
  O     3.279770    0.858654   -1.430918
  C     2.705533   -0.596895    0.396842
  O     3.763483   -1.493015    0.107942
  C     1.547515   -1.354393    1.025362
  O     1.898583   -1.751731    2.343985
  C     0.286743   -0.484625    1.097018
  O    -0.762011   -1.342797    1.513395
  H    -3.725514   -0.276952   -2.697408
  H    -5.163485    0.344058    0.580236
  H    -0.886167    2.000404    0.567337
  H    -1.253118    1.716264   -1.130478
  H    -0.283593   -0.572710   -0.993999
  H     2.022832   -0.691730   -1.668956
  H     3.252819    1.688438   -0.936152
  H     3.076998    0.159736    1.102964
  H     4.404328   -0.998276   -0.421377
  H     1.347894   -2.265827    0.445899
  H     1.112189   -2.186253    2.700207
  H     0.435099    0.284810    1.870437
  H    -1.594567   -0.867754    1.382719

----------------------------
CARTESIAN COORDINATES (A.U.)
----------------------------
  NO LB    ZA    FRAG    MASS        X           Y           Z
   0 O   8.0000    0    15.999   -7.548140    3.833127   -2.309949
   1 P  15.0000    0    30.974   -6.742943    1.285967   -1.512725
   2 O   8.0000    0    15.999   -5.853412   -0.539058   -3.730929
   3 O   8.0000    0    15.999   -8.864361   -0.335927   -0.132172
   4 O   8.0000    0    15.999   -4.441846    1.153862    0.451878
   5 C   6.0000    0    12.011   -2.149481    2.308411   -0.305442
   6 C   6.0000    0    12.011   -0.010688    0.363284   -0.478766
   7 O   8.0000    0    15.999    2.139966    1.714703   -1.330612
   8 C   6.0000    0    12.011    4.245669    0.129119   -1.715922
   9 O   8.0000    0    15.999    6.197867    1.622622   -2.704044
  10 C   6.0000    0    12.011    5.112716   -1.127968    0.749923
  11 O   8.0000    0    15.999    7.111952   -2.821389    0.203980
  12 C   6.0000    0    12.011    2.924379   -2.559432    1.937654
  13 O   8.0000    0    15.999    3.587801   -3.310291    4.429490
  14 C   6.0000    0    12.011    0.541865   -0.915809    2.073064
  15 O   8.0000    0    15.999   -1.439992   -2.537518    2.859903
  16 H   1.0000    0     1.008   -7.040202   -0.523364   -5.097362
  17 H   1.0000    0     1.008   -9.757572    0.650175    1.096488
  18 H   1.0000    0     1.008   -1.674612    3.780216    1.072111
  19 H   1.0000    0     1.008   -2.368049    3.243268   -2.136295
  20 H   1.0000    0     1.008   -0.535913   -1.082265   -1.878386
  21 H   1.0000    0     1.008    3.822599   -1.307180   -3.153869
  22 H   1.0000    0     1.008    6.146938    3.190686   -1.769071
  23 H   1.0000    0     1.008    5.814684    0.301857    2.084299
  24 H   1.0000    0     1.008    8.322973   -1.886468   -0.796287
  25 H   1.0000    0     1.008    2.547150   -4.281792    0.842627
  26 H   1.0000    0     1.008    2.101732   -4.131419    5.102651
  27 H   1.0000    0     1.008    0.822217    0.538214    3.534613
  28 H   1.0000    0     1.008   -3.013295   -1.639818    2.612960

      -----------------------------------------------------------      
     |                   =====================                   |     
     |                           x T B                           |     
     |                   =====================                   |     
     |                         S. Grimme                         |     
     |          Mulliken Center for Theoretical Chemistry        |     
     |                    University of Bonn                     |     
      -----------------------------------------------------------      

   * xtb version 6.5.1 (579679a) compiled by 'ehlert@majestix' on 2022-07-11

   xtb is free software: you can redistribute it and/or modify it under
   the terms of the GNU Lesser General Public License as published by
   the Free Software Foundation, either version 3 of the License, or
   (at your option) any later version.
   
   xtb is distributed in the hope that it will be useful,
   but WITHOUT ANY WARRANTY; without even the implied warranty of
   MERCHANTABILITY or FITNESS FOR A PARTICULAR PURPOSE.  See the
   GNU Lesser General Public License for more details.
   
   Cite this work as:
   * C. Bannwarth, E. Caldeweyher, S. Ehlert, A. Hansen, P. Pracht,
     J. Seibert, S. Spicher, S. Grimme, WIREs Comput. Mol. Sci., 2020, 11,
     e01493. DOI: 10.1002/wcms.1493
   
   for GFN2-xTB:
   * C. Bannwarth, S. Ehlert and S. Grimme., J. Chem. Theory Comput., 2019,
     15, 1652-1671. DOI: 10.1021/acs.jctc.8b01176
   for GFN1-xTB:
   * S. Grimme, C. Bannwarth, P. Shushkov, J. Chem. Theory Comput., 2017,
     13, 1989-2009. DOI: 10.1021/acs.jctc.7b00118
   for GFN0-xTB:
   * P. Pracht, E. Caldeweyher, S. Ehlert, S. Grimme, ChemRxiv, 2019, preprint.
     DOI: 10.26434/chemrxiv.8326202.v1
   for GFN-FF:
   * S. Spicher and S. Grimme, Angew. Chem. Int. Ed., 2020, 59, 15665-15673.
     DOI: 10.1002/anie.202004239
   
   for ALPB and GBSA implicit solvation:
   * S. Ehlert, M. Stahn, S. Spicher, S. Grimme, J. Chem. Theory Comput.,
     2021, 17, 4250-4261. DOI: 10.1021/acs.jctc.1c00471
   
   for DFT-D4:
   * E. Caldeweyher, C. Bannwarth and S. Grimme, J. Chem. Phys., 2017,
     147, 034112. DOI: 10.1063/1.4993215
   * E. Caldeweyher, S. Ehlert, A. Hansen, H. Neugebauer, S. Spicher,
     C. Bannwarth and S. Grimme, J. Chem. Phys., 2019, 150, 154122.
     DOI: 10.1063/1.5090222
   * E. Caldeweyher, J.-M. Mewes, S. Ehlert and S. Grimme, Phys. Chem. Chem. Phys.
     2020, 22, 8499-8512. DOI: 10.1039/D0CP00502A
   
   for sTDA-xTB:
   * S. Grimme and C. Bannwarth, J. Chem. Phys., 2016, 145, 054103.
     DOI: 10.1063/1.4959605
   
   in the mass-spec context:
   * V. Asgeirsson, C. Bauer and S. Grimme, Chem. Sci., 2017, 8, 4879.
     DOI: 10.1039/c7sc00601b
   * J. Koopman and S. Grimme, ACS Omega 2019, 4, 12, 15120-15133.
     DOI: 10.1021/acsomega.9b02011
   
   for metadynamics refer to:
   * S. Grimme, J. Chem. Theory Comput., 2019, 155, 2847-2862
     DOI: 10.1021/acs.jctc.9b00143
   
   for SPH calculations refer to:
   * S. Spicher and S. Grimme, J. Chem. Theory Comput., 2021, 17, 1701-1714
     DOI: 10.1021/acs.jctc.0c01306
   
   with help from (in alphabetical order)
   P. Atkinson, C. Bannwarth, F. Bohle, G. Brandenburg, E. Caldeweyher
   M. Checinski, S. Dohm, S. Ehlert, S. Ehrlich, I. Gerasimov, C. Hölzer
   A. Katbashev, J. Koopman, C. Lavigne, S. Lehtola, F. März, M. Müller,
   F. Musil, H. Neugebauer, J. Pisarek, C. Plett, P. Pracht, F. Pultar,
   J. Seibert, P. Shushkov, S. Spicher, M. Stahn, M. Steiner, T. Strunk,
   J. Stückrath, T. Rose, and J. Unsleber
   
 * started run on 2023/12/04 at 14:30:17.513     

           -------------------------------------------------
          |                Calculation Setup                |
           -------------------------------------------------

          program call               : otool_xtb /tmp/C01172_XTB.xyz --grad -c 0 -u 0 -P 1 --namespace /tmp/C01172 --input /tmp/C01172_XTB.input.tmp --acc 1.000000
          calculation namespace      : /tmp/C01172
          coordinate file            : /tmp/C01172_XTB.xyz
          omp threads                :                     1

   ID    Z sym.   atoms
    1    8 O      1, 3-5, 8, 10, 12, 14, 16
    2   15 P      2
    3    6 C      6, 7, 9, 11, 13, 15
    4    1 H      17-29

           -------------------------------------------------
          |                 G F N 2 - x T B                 |
           -------------------------------------------------

        Reference                      10.1021/acs.jctc.8b01176
      * Hamiltonian:
        H0-scaling (s, p, d)           1.850000    2.230000    2.230000
        zeta-weighting                 0.500000
      * Dispersion:
        s8                             2.700000
        a1                             0.520000
        a2                             5.000000
        s9                             5.000000
      * Repulsion:
        kExp                           1.500000    1.000000
        rExp                           1.000000
      * Coulomb:
        alpha                          2.000000
        third order                    shell-resolved
        anisotropic                    true
        a3                             3.000000
        a5                             4.000000
        cn-shift                       1.200000
        cn-exp                         4.000000
        max-rad                        5.000000

q/qsh data taken from xtbrestart
CAMM data taken from xtbrestart

          ...................................................
          :                      SETUP                      :
          :.................................................:
          :  # basis functions                  83          :
          :  # atomic orbitals                  82          :
          :  # shells                           46          :
          :  # electrons                        96          :
          :  max. iterations                   250          :
          :  Hamiltonian                  GFN2-xTB          :
          :  restarted?                       true          :
          :  GBSA solvation                  false          :
          :  PC potential                    false          :
          :  electronic temp.          300.0000000     K    :
          :  accuracy                    1.0000000          :
          :  -> integral cutoff          0.2500000E+02      :
          :  -> integral neglect         0.1000000E-07      :
          :  -> SCF convergence          0.1000000E-05 Eh   :
          :  -> wf. convergence          0.1000000E-03 e    :
          :  Broyden damping             0.4000000          :
          ...................................................

 iter      E             dE          RMSdq      gap      omega  full diag
   1    -59.1220588 -0.591221E+02  0.456E-01    8.44       0.0  T
   2    -59.1221252 -0.663485E-04  0.275E-01    8.46       1.0  T
   3    -59.1221289 -0.372878E-05  0.260E-02    8.48       1.0  T
   4    -59.1221334 -0.445225E-05  0.976E-03    8.48       1.9  T
   5    -59.1221338 -0.402691E-06  0.436E-03    8.47       4.3  T
   6    -59.1221338 -0.610092E-07  0.180E-03    8.47      10.3  T
   7    -59.1221338 -0.536810E-08  0.646E-04    8.47      28.7  T
   8    -59.1221338 -0.130968E-08  0.137E-04    8.47     135.7  T

   *** convergence criteria satisfied after 8 iterations ***

         #    Occupation            Energy/Eh            Energy/eV
      -------------------------------------------------------------
         1        2.0000           -0.7650769             -20.8188
       ...           ...                  ...                  ...
        42        2.0000           -0.4575561             -12.4507
        43        2.0000           -0.4540575             -12.3555
        44        2.0000           -0.4508937             -12.2694
        45        2.0000           -0.4470928             -12.1660
        46        2.0000           -0.4294449             -11.6858
        47        2.0000           -0.4197381             -11.4217
        48        2.0000           -0.4105449             -11.1715 (HOMO)
        49                         -0.0991222              -2.6973 (LUMO)
        50                         -0.0621215              -1.6904
        51                         -0.0441594              -1.2016
        52                         -0.0280987              -0.7646
        53                         -0.0124078              -0.3376
       ...                                ...                  ...
        82                          1.1870335              32.3008
      -------------------------------------------------------------
                  HL-Gap            0.3114227 Eh            8.4742 eV
             Fermi-level           -0.2548336 Eh           -6.9344 eV

 SCC (total)                   0 d,  0 h,  0 min,  0.032 sec
 SCC setup                      ...        0 min,  0.000 sec (  0.610%)
 Dispersion                     ...        0 min,  0.000 sec (  0.691%)
 classical contributions        ...        0 min,  0.000 sec (  0.153%)
 integral evaluation            ...        0 min,  0.005 sec ( 16.608%)
 iterations                     ...        0 min,  0.010 sec ( 31.740%)
 molecular gradient             ...        0 min,  0.016 sec ( 49.683%)
 printout                       ...        0 min,  0.000 sec (  0.473%)

         :::::::::::::::::::::::::::::::::::::::::::::::::::::
         ::                     SUMMARY                     ::
         :::::::::::::::::::::::::::::::::::::::::::::::::::::
         :: total energy             -58.742814828145 Eh    ::
         :: gradient norm              0.042894466448 Eh/a0 ::
         :: HOMO-LUMO gap              8.474242301694 eV    ::
         ::.................................................::
         :: SCC energy               -59.122133834278 Eh    ::
         :: -> isotropic ES            0.220882191932 Eh    ::
         :: -> anisotropic ES         -0.008320458710 Eh    ::
         :: -> anisotropic XC         -0.009038307241 Eh    ::
         :: -> dispersion             -0.026183057484 Eh    ::
         :: repulsion energy           0.379175538983 Eh    ::
         :: add. restraining           0.000000000000 Eh    ::
         :: total charge              -0.000000000000 e     ::
         :::::::::::::::::::::::::::::::::::::::::::::::::::::


Property printout bound to 'properties.out'

           -------------------------------------------------
          | TOTAL ENERGY              -58.742814828145 Eh   |
          | GRADIENT NORM               0.042894466448 Eh/α |
          | HOMO-LUMO GAP               8.474242301694 eV   |
           -------------------------------------------------

------------------------------------------------------------------------
 * finished run on 2023/12/04 at 14:30:17.557     
------------------------------------------------------------------------
 total:
 * wall-time:     0 d,  0 h,  0 min,  0.044 sec
 *  cpu-time:     0 d,  0 h,  0 min,  0.044 sec
 * ratio c/w:     1.001 speedup
 SCF:
 * wall-time:     0 d,  0 h,  0 min,  0.032 sec
 *  cpu-time:     0 d,  0 h,  0 min,  0.032 sec
 * ratio c/w:     0.992 speedup


-------------------------   --------------------
FINAL SINGLE POINT ENERGY       -58.742814828140
-------------------------   --------------------

------------------------------------------------------------------------------
                         ORCA GEOMETRY RELAXATION STEP
------------------------------------------------------------------------------

Reading the OPT-File                    .... done
Getting information on internals        .... done
Copying old internal coords+grads       .... done
Making the new internal coordinates     .... (new redundants).... done
Validating the new internal coordinates .... (new redundants).... done
Calculating the B-matrix                .... done
Calculating the G,G- and P matrices     .... done
Transforming gradient to internals      .... done
Projecting the internal gradient        .... done
Number of atoms                         ....  29
Number of internal coordinates          .... 154
Current Energy                          ....   -58.742814828 Eh
Current gradient norm                   ....     0.042894466 Eh/bohr
Maximum allowed component of the step   ....  0.300
Current trust radius                    ....  0.300
Updating the Hessian (BFGS)             .... done
Forming the augmented Hessian           .... done
Diagonalizing the augmented Hessian     .... done
Last element of RFO vector              ....  0.950721453
Lowest eigenvalues of augmented Hessian:
 -0.004369512  0.010734940  0.012693423  0.013566014  0.013725349
Length of the computed step             ....  0.326116883
Warning: the length of the step is outside the trust region - taking restricted step instead
The input lambda is                     ....    -0.004370
   iter:   1  x=   -0.006002  g=   10.017248 f(x)=     0.016352
   iter:   2  x=   -0.006253  g=    7.759350 f(x)=     0.001952
   iter:   3  x=   -0.006258  g=    7.476121 f(x)=     0.000036
   iter:   4  x=   -0.006258  g=    7.470851 f(x)=     0.000000
   iter:   5  x=   -0.006258  g=    7.470849 f(x)=     0.000000
The output lambda is                    ....    -0.006258 (5 iterations)
The final length of the internal step   ....  0.300000000
Converting the step to cartesian space:
 Initial RMS(Int)=    0.0241746889
Transforming coordinates:
 Iter   0:  RMS(Cart)=    0.1189513724 RMS(Int)=    0.7105772098
 Iter   1:  RMS(Cart)=    0.0074007811 RMS(Int)=    0.0040591787
 Iter   2:  RMS(Cart)=    0.0009110004 RMS(Int)=    0.0003161287
 Iter   3:  RMS(Cart)=    0.0001228989 RMS(Int)=    0.0000736097
 Iter   4:  RMS(Cart)=    0.0000169033 RMS(Int)=    0.0000079966
 Iter   5:  RMS(Cart)=    0.0000023377 RMS(Int)=    0.0000015476
 Iter   6:  RMS(Cart)=    0.0000003452 RMS(Int)=    0.0000002043
 Iter   7:  RMS(Cart)=    0.0000000506 RMS(Int)=    0.0000000372
done
Storing new coordinates                 .... done

                                .--------------------.
          ----------------------|Geometry convergence|-------------------------
          Item                value                   Tolerance       Converged
          ---------------------------------------------------------------------
          Energy change      -0.0069550061            0.0000050000      NO
          RMS gradient        0.0022162195            0.0001000000      NO
          MAX gradient        0.0172294291            0.0003000000      NO
          RMS step            0.0241746889            0.0020000000      NO
          MAX step            0.1052994079            0.0040000000      NO
          ........................................................
          Max(Bonds)      0.0163      Max(Angles)    1.85
          Max(Dihed)        6.03      Max(Improp)    0.00
          ---------------------------------------------------------------------

The optimization has not yet converged - more geometry cycles are needed


    ---------------------------------------------------------------------------
                         Redundant Internal Coordinates
                            (Angstroem and degrees)

        Definition                    Value    dE/dq     Step     New-Value
    ----------------------------------------------------------------------------
     1. B(P   1,O   0)                1.4752  0.017229 -0.0128    1.4624   
     2. B(O   2,P   1)                1.5913  0.003344 -0.0038    1.5875   
     3. B(O   3,P   1)                1.5908  0.002957 -0.0032    1.5876   
     4. B(O   4,P   1)                1.6026  0.002615 -0.0031    1.5995   
     5. B(C   5,O   4)                1.4161 -0.000026 -0.0005    1.4156   
     6. B(C   6,C   5)                1.5326  0.001557 -0.0041    1.5285   
     7. B(O   7,C   6)                1.4177  0.002667 -0.0092    1.4085   
     8. B(C   8,O   7)                1.4097  0.000888 -0.0040    1.4057   
     9. B(O   9,C   8)                1.4019  0.006998 -0.0151    1.3868   
    10. B(C  10,C   8)                1.5348 -0.002718  0.0054    1.5402   
    11. B(O  11,C  10)                1.4162  0.006004 -0.0143    1.4020   
    12. B(C  12,C  10)                1.5198 -0.001349  0.0024    1.5222   
    13. B(O  13,C  12)                1.4212  0.007439 -0.0163    1.4049   
    14. B(C  14,C  12)                1.5334 -0.002051  0.0041    1.5375   
    15. B(C  14,C   6)                1.5386  0.002227 -0.0059    1.5327   
    16. B(O  15,C  14)                1.4176  0.004543 -0.0108    1.4069   
    17. B(H  16,O   2)                0.9578  0.001701 -0.0060    0.9518   
    18. B(H  17,O   3)                0.9584  0.002322 -0.0073    0.9511   
    19. B(H  18,C   5)                1.0960  0.000601 -0.0016    1.0944   
    20. B(H  19,C   5)                1.0940  0.000499 -0.0022    1.0918   
    21. B(H  20,C   6)                1.1004 -0.000701  0.0019    1.1024   
    22. B(H  21,C   8)                1.0986 -0.001356  0.0033    1.1018   
    23. B(H  22,O   9)                0.9665  0.000752 -0.0026    0.9639   
    24. B(H  23,C  10)                1.0996 -0.000891  0.0023    1.1019   
    25. B(H  24,O  11)                0.9673  0.000669 -0.0029    0.9643   
    26. B(H  25,C  12)                1.0983 -0.000512  0.0011    1.0995   
    27. B(H  26,O  13)                0.9665  0.001058 -0.0040    0.9625   
    28. B(H  27,C  14)                1.1010 -0.000830  0.0023    1.1033   
    29. B(H  28,O  15)                0.9674  0.001041 -0.0044    0.9630   
    30. A(O   2,P   1,O   3)          102.71 -0.002306    0.75    103.46   
    31. A(O   0,P   1,O   4)          116.41  0.000400   -0.35    116.06   
    32. A(O   3,P   1,O   4)          102.40  0.002781   -0.75    101.66   
    33. A(O   2,P   1,O   4)          103.14  0.002251   -0.81    102.32   
    34. A(O   0,P   1,O   2)          115.40 -0.000441    0.28    115.69   
    35. A(O   0,P   1,O   3)          114.86 -0.002319    0.80    115.67   
    36. A(P   1,O   2,H  16)          110.96  0.001071   -0.30    110.66   
    37. A(P   1,O   3,H  17)          111.46  0.000971   -0.23    111.23   
    38. A(P   1,O   4,C   5)          116.64  0.000875   -0.21    116.43   
    39. A(C   6,C   5,H  18)          110.35  0.000687   -0.27    110.08   
    40. A(H  18,C   5,H  19)          106.97 -0.001543    1.13    108.11   
    41. A(O   4,C   5,C   6)          111.09  0.000933   -0.39    110.69   
    42. A(O   4,C   5,H  19)          110.80 -0.000426   -0.12    110.69   
    43. A(C   6,C   5,H  19)          109.20  0.000717   -0.36    108.83   
    44. A(O   4,C   5,H  18)          108.35 -0.000465    0.08    108.42   
    45. A(C  14,C   6,H  20)          109.45  0.000790   -0.47    108.97   
    46. A(O   7,C   6,C  14)          110.39 -0.000765    0.14    110.53   
    47. A(C   5,C   6,O   7)          105.85  0.000134   -0.29    105.56   
    48. A(C   5,C   6,C  14)          112.54  0.001059   -0.25    112.29   
    49. A(O   7,C   6,H  20)          109.84 -0.000245    0.44    110.28   
    50. A(C   5,C   6,H  20)          108.70 -0.001030    0.45    109.15   
    51. A(C   6,O   7,C   8)          112.35 -0.001862    0.56    112.91   
    52. A(O   9,C   8,C  10)          109.95 -0.002269    0.93    110.88   
    53. A(O   7,C   8,C  10)          111.80  0.000994   -0.13    111.67   
    54. A(C  10,C   8,H  21)          110.48  0.002202   -1.20    109.28   
    55. A(O   9,C   8,H  21)          106.37  0.000222   -0.08    106.30   
    56. A(O   7,C   8,H  21)          110.54 -0.000896    0.22    110.76   
    57. A(O   7,C   8,O   9)          107.51 -0.000403    0.32    107.83   
    58. A(C   8,O   9,H  22)          105.82 -0.005160    1.44    107.26   
    59. A(C   8,C  10,C  12)          109.87 -0.000710    0.37    110.24   
    60. A(C   8,C  10,O  11)          108.91  0.000379   -0.20    108.71   
    61. A(C  12,C  10,H  23)          109.56  0.001107   -0.62    108.94   
    62. A(O  11,C  10,H  23)          108.30 -0.002289    1.74    110.05   
    63. A(C   8,C  10,H  23)          110.41  0.000883   -0.70    109.71   
    64. A(O  11,C  10,C  12)          109.77  0.000611   -0.58    109.19   
    65. A(C  10,O  11,H  24)          106.43 -0.003249    0.84    107.27   
    66. A(C  14,C  12,H  25)          110.24  0.000840   -0.84    109.40   
    67. A(O  13,C  12,H  25)          107.60 -0.001929    1.85    109.45   
    68. A(C  10,C  12,H  25)          109.51  0.000256   -0.67    108.84   
    69. A(O  13,C  12,C  14)          108.56 -0.001591    0.67    109.23   
    70. A(C  10,C  12,C  14)          111.29  0.001224   -0.22    111.07   
    71. A(C  10,C  12,O  13)          109.56  0.001086   -0.69    108.87   
    72. A(C  12,O  13,H  26)          105.47 -0.003333    0.88    106.35   
    73. A(O  15,C  14,H  27)          108.45 -0.001943    1.49    109.94   
    74. A(C  12,C  14,H  27)          108.57  0.000542   -0.29    108.28   
    75. A(C  12,C  14,O  15)          106.18 -0.000279   -0.13    106.05   
    76. A(C   6,C  14,H  27)          109.55  0.001202   -0.72    108.83   
    77. A(C   6,C  14,O  15)          112.55  0.001039   -0.47    112.08   
    78. A(C   6,C  14,C  12)          111.39 -0.000657    0.17    111.56   
    79. A(C  14,O  15,H  28)          107.44 -0.002508    0.65    108.10   
    80. D(H  16,O   2,P   1,O   3)     77.96 -0.003267    3.41     81.37   
    81. D(H  16,O   2,P   1,O   0)    -47.80  0.001673    1.70    -46.10   
    82. D(H  16,O   2,P   1,O   4)   -175.86 -0.000320    2.61   -173.25   
    83. D(H  17,O   3,P   1,O   4)     82.40 -0.001057    2.45     84.86   
    84. D(H  17,O   3,P   1,O   2)   -170.85  0.001500    1.59   -169.26   
    85. D(H  17,O   3,P   1,O   0)    -44.74 -0.002191    2.94    -41.80   
    86. D(C   5,O   4,P   1,O   3)    176.10 -0.001413    5.45    181.55   
    87. D(C   5,O   4,P   1,O   2)     69.68 -0.000475    5.13     74.81   
    88. D(C   5,O   4,P   1,O   0)    -57.75 -0.001980    5.67    -52.08   
    89. D(H  18,C   5,O   4,P   1)    120.73 -0.002862    6.03    126.76   
    90. D(C   6,C   5,O   4,P   1)   -117.90 -0.001732    5.51   -112.39   
    91. D(H  19,C   5,O   4,P   1)      3.66 -0.000476    4.69      8.35   
    92. D(O   7,C   6,C   5,H  19)     55.50 -0.000725    1.08     56.57   
    93. D(O   7,C   6,C   5,H  18)    -61.81  0.000322    0.07    -61.74   
    94. D(H  20,C   6,C   5,H  18)   -179.76  0.001053   -0.52   -180.28   
    95. D(H  20,C   6,C   5,H  19)    -62.44  0.000006    0.48    -61.96   
    96. D(C  14,C   6,C   5,H  19)    176.16 -0.000966    0.89    177.05   
    97. D(C  14,C   6,C   5,H  18)     58.85  0.000080   -0.11     58.74   
    98. D(C  14,C   6,C   5,O   4)    -61.34 -0.000401    0.23    -61.11   
    99. D(O   7,C   6,C   5,O   4)    178.00 -0.000160    0.41    178.41   
[...]
                 84         85         86    
      0      -0.000006  -0.000115  -0.000143
      1       0.000004   0.000203  -0.000269
      2       0.000001  -0.000056   0.000286
      3       0.000008  -0.000067   0.000148
      4      -0.000007  -0.000229  -0.000271
      5      -0.000003  -0.000290   0.000168
      6      -0.000011  -0.016801   0.007528
      7       0.000003  -0.020052   0.009696
      8      -0.000009  -0.050357   0.023159
      9       0.000012   0.012347   0.027346
     10      -0.000030  -0.022796  -0.049783
     11       0.000005   0.001604   0.003127
     12      -0.000021   0.000091  -0.000546
     13       0.000006   0.000114  -0.000177
     14       0.000009   0.000305  -0.000199
     15      -0.000001  -0.000148   0.000378
     16      -0.000031  -0.000120   0.000235
     17      -0.000019  -0.000102   0.000051
     18      -0.000053  -0.000029   0.000091
     19      -0.000015  -0.000012  -0.000005
     20       0.000069  -0.000006  -0.000005
     21       0.000194   0.000014  -0.000055
     22      -0.000014   0.000005   0.000017
     23      -0.000138   0.000002   0.000013
     24       0.001308  -0.000020   0.000060
     25       0.001865   0.000001  -0.000023
     26       0.000827   0.000009  -0.000035
     27       0.002462   0.000006  -0.000022
     28       0.049466  -0.000017  -0.000030
     29       0.036700  -0.000017  -0.000008
     30      -0.000334  -0.000013   0.000027
     31       0.000002   0.000005  -0.000004
     32       0.000066   0.000001   0.000006
     33      -0.001849   0.000001  -0.000022
     34      -0.001508  -0.000006   0.000002
     35       0.001408   0.000001   0.000010
     36       0.000070  -0.000011   0.000021
     37       0.000057   0.000003  -0.000032
     38      -0.000026  -0.000008   0.000010
     39       0.001004   0.000014  -0.000007
     40       0.000607   0.000005   0.000013
     41      -0.000429   0.000003  -0.000013
     42      -0.000009   0.000001  -0.000026
     43      -0.000041  -0.000018   0.000006
     44      -0.000014  -0.000024   0.000035
     45      -0.000410  -0.000030  -0.000452
     46       0.000225   0.000044   0.000280
     47      -0.000011   0.000018  -0.000038
     48       0.000076   0.272545  -0.124974
     49       0.000062   0.314932  -0.147477
     50       0.000157   0.804700  -0.370946
     51      -0.000254  -0.196681  -0.428011
     52       0.000477   0.368488   0.796859
     53      -0.000051  -0.025099  -0.053415
     54      -0.000019  -0.000040  -0.000244
     55       0.000008   0.000236  -0.000499
     56       0.000151   0.000720  -0.000788
     57      -0.000011  -0.000087   0.000553
     58       0.000049   0.000019   0.000236
     59      -0.000093  -0.000454   0.000373
     60      -0.000880  -0.000532   0.000148
     61      -0.000190  -0.000242   0.000170
     62       0.000089  -0.000173   0.000232
     63       0.001661  -0.000092   0.000001
     64      -0.001466  -0.000002   0.000042
     65      -0.005140   0.000046   0.000041
     66      -0.055100  -0.000004   0.000114
     67      -0.804321   0.000328   0.000422
     68      -0.586250   0.000246   0.000247
     69       0.000230   0.000034   0.000002
     70       0.000511   0.000014  -0.000055
     71      -0.000931   0.000016  -0.000035
     72       0.030809   0.000020   0.000223
     73       0.023642   0.000063   0.000076
     74      -0.022442  -0.000019  -0.000128
     75      -0.000337  -0.000097   0.000018
     76      -0.000519   0.000084   0.000084
     77      -0.000003   0.000004   0.000067
     78      -0.016265  -0.000177   0.000012
     79      -0.010290  -0.000080  -0.000078
     80       0.007607   0.000033   0.000047
     81       0.000072   0.000055   0.000027
     82       0.000173   0.000142  -0.000138
     83       0.000136   0.000292  -0.000227
     84       0.006246   0.000718   0.007270
     85      -0.003704  -0.000714  -0.004546
     86       0.000312  -0.000126   0.000606


-----------
IR SPECTRUM
-----------

 Mode   freq       eps      Int      T**2         TX        TY        TZ
       cm**-1   L/(mol*cm) km/mol    a.u.
----------------------------------------------------------------------------
  6:     21.48   0.000108    0.55  0.001568  ( 0.012047 -0.028524 -0.024676)
  7:     30.38   0.000069    0.35  0.000711  ( 0.003630  0.025683 -0.006145)
  8:     43.16   0.000546    2.76  0.003949  (-0.062060  0.009817 -0.001088)
  9:     67.87   0.000043    0.22  0.000199  (-0.009153  0.006552 -0.008499)
 10:     76.51   0.000993    5.02  0.004049  (-0.045816  0.044017 -0.003575)
 11:    139.04   0.001207    6.10  0.002710  (-0.038131 -0.035294  0.003162)
 12:    148.29   0.000510    2.58  0.001074  (-0.017327  0.027717 -0.002342)
 13:    186.06   0.012127   61.29  0.020340  (-0.127570 -0.061291  0.017586)
 14:    216.48   0.001877    9.48  0.002706  (-0.018506 -0.005430  0.048308)
 15:    225.76   0.017135   86.59  0.023685  (-0.097538 -0.006888  0.118843)
 16:    234.01   0.003151   15.92  0.004202  (-0.044582  0.037773 -0.028063)
 17:    237.50   0.010640   53.77  0.013980  (-0.074991  0.043386 -0.080462)
 18:    251.08   0.008466   42.78  0.010522  (-0.032511 -0.057576 -0.078422)
 19:    267.41   0.010370   52.41  0.012102  ( 0.070552 -0.057834  0.061477)
 20:    284.50   0.001082    5.47  0.001186  ( 0.021204 -0.010811  0.024896)
 21:    319.52   0.007984   40.35  0.007797  (-0.081180  0.017403  0.030072)
 22:    335.49   0.002248   11.36  0.002091  ( 0.023749  0.038718  0.005252)
 23:    351.77   0.017683   89.36  0.015687  (-0.031729  0.062833 -0.103595)
 24:    361.82   0.056887  287.49  0.049064  ( 0.136409 -0.045144  0.168579)
 25:    367.80   0.008722   44.08  0.007400  ( 0.071481 -0.033795 -0.033886)
 26:    375.44   0.005101   25.78  0.004240  ( 0.045757 -0.012314  0.044663)
 27:    392.33   0.011589   58.56  0.009218  ( 0.030501  0.048601  0.076977)
 28:    400.66   0.027564  139.30  0.021469  (-0.106796  0.067728  0.074004)
 29:    409.21   0.008126   41.07  0.006197  (-0.078292 -0.007656 -0.002987)
 30:    418.53   0.010358   52.34  0.007723  ( 0.006748 -0.007355 -0.087310)
 31:    443.18   0.035874  181.29  0.025261  (-0.017446 -0.094905 -0.126291)
 32:    480.41   0.004744   23.97  0.003082  (-0.033725  0.010206  0.042896)
 33:    494.98   0.009814   49.60  0.006187  (-0.061612 -0.016027  0.046200)
 34:    530.45   0.004360   22.03  0.002565  (-0.041071  0.023351 -0.018238)
 35:    569.03   0.005812   29.37  0.003187  (-0.010534 -0.026410  0.048775)
 36:    592.09   0.002599   13.13  0.001370  (-0.001768 -0.007300 -0.036240)
 37:    645.20   0.002426   12.26  0.001173  ( 0.011093 -0.031826 -0.006099)
 38:    746.36   0.024218  122.39  0.010126  (-0.064024 -0.021806 -0.074507)
 39:    819.57   0.026405  133.44  0.010054  ( 0.069230  0.058507  0.042873)
 40:    859.92   0.045639  230.64  0.016562  ( 0.075215 -0.050942 -0.091158)
 41:    885.82   0.079826  403.41  0.028121  (-0.162961  0.039313 -0.004427)
 42:    906.41   0.004665   23.58  0.001606  ( 0.017917  0.032811 -0.014445)
 43:    913.21   0.046612  235.56  0.015928  ( 0.026606  0.117859 -0.036464)
 44:    984.14   0.014955   75.57  0.004742  (-0.031984 -0.056019  0.024102)
 45:   1002.50   0.006878   34.76  0.002141  (-0.003900  0.045874  0.004618)
 46:   1033.72   0.004360   22.04  0.001316  (-0.020265 -0.018922 -0.023401)
 47:   1056.00   0.006167   31.16  0.001822  ( 0.017710 -0.034041 -0.018707)
 48:   1067.66   0.010045   50.76  0.002936  (-0.047776  0.018303 -0.017848)
 49:   1091.03   0.005088   25.71  0.001455  (-0.038077  0.002287  0.000281)
 50:   1102.78   0.037686  190.45  0.010664  (-0.091467 -0.028088  0.038847)
 51:   1107.39   0.043964  222.18  0.012389  ( 0.040021 -0.081026  0.064979)
 52:   1110.74   0.006514   32.92  0.001830  (-0.042096 -0.006745  0.003538)
 53:   1125.93   0.018198   91.96  0.005044  (-0.054870 -0.042323  0.015547)
 54:   1133.63   0.023186  117.17  0.006383  ( 0.077253  0.015956 -0.012650)
 55:   1141.09   0.014477   73.16  0.003959  (-0.051271  0.029642  0.021252)
 56:   1148.88   0.002679   13.54  0.000728  ( 0.003632  0.000954 -0.026712)
 57:   1193.30   0.002971   15.02  0.000777  ( 0.007097  0.014923  0.022450)
 58:   1202.83   0.005870   29.66  0.001523  ( 0.026740  0.010313 -0.026485)
 59:   1227.13   0.008235   41.62  0.002094  (-0.017183 -0.030701 -0.029266)
 60:   1244.33   0.001128    5.70  0.000283  ( 0.012914 -0.008241 -0.006943)
 61:   1254.15   0.010385   52.48  0.002584  ( 0.035734 -0.034360 -0.011243)
 62:   1263.21   0.033913  171.38  0.008378  (-0.017204  0.074365 -0.050515)
 63:   1272.13   0.043204  218.34  0.010598  (-0.005398 -0.071403  0.073965)
 64:   1276.12   0.019731   99.71  0.004825  ( 0.008715  0.023137 -0.064914)
 65:   1280.82   0.023845  120.50  0.005810  ( 0.020545  0.038977 -0.062196)
 66:   1307.29   0.008992   45.44  0.002146  (-0.019075 -0.038562 -0.017190)
 67:   1314.99   0.003390   17.13  0.000804  (-0.026640 -0.008481 -0.004768)
 68:   1325.37   0.000981    4.96  0.000231  (-0.006616  0.001749 -0.013571)
 69:   1332.92   0.009628   48.66  0.002254  (-0.039848 -0.008801  0.024267)
 70:   1338.06   0.003346   16.91  0.000780  ( 0.024583  0.012856  0.003263)
 71:   1343.60   0.007278   36.78  0.001690  ( 0.029242  0.005101 -0.028449)
 72:   1368.51   0.002148   10.86  0.000490  (-0.014803  0.016273 -0.002431)
 73:   1451.79   0.000838    4.24  0.000180  (-0.003327  0.008454  0.009879)
 74:   2837.03   0.001892    9.56  0.000208  (-0.000565 -0.010052 -0.010331)
 75:   2850.29   0.000400    2.02  0.000044  (-0.000537 -0.003693 -0.005463)
 76:   2852.82   0.007614   38.48  0.000833  (-0.002224 -0.021717 -0.018876)
 77:   2861.10   0.018007   91.00  0.001964  (-0.002743 -0.032215 -0.030310)
 78:   2880.13   0.024582  124.23  0.002663  ( 0.002226  0.030032  0.041911)
 79:   2951.98   0.002861   14.46  0.000302  ( 0.001892  0.012402 -0.012043)
 80:   2969.92   0.007356   37.17  0.000773  ( 0.000684  0.015264  0.023227)
 81:   3498.36   0.002215   11.19  0.000198  ( 0.005017 -0.012164  0.004943)
 82:   3505.27   0.017413   88.00  0.001550  ( 0.027158 -0.020427  0.019885)
 83:   3522.82   0.002010   10.16  0.000178  ( 0.006909  0.011332 -0.001387)
 84:   3524.99   0.009505   48.03  0.000841  (-0.003571 -0.025737 -0.012895)
 85:   3622.12   0.016511   83.44  0.001422  ( 0.003843  0.026916  0.026140)
 86:   3627.77   0.014684   74.21  0.001263  (-0.031309  0.008900 -0.014271)

* The epsilon (eps) is given for a Dirac delta lineshape.
** The dipole moment derivative (T) already includes vibrational overlap.

The first frequency considered to be a vibration is 6
The total number of vibrations considered is 81


--------------------------
THERMOCHEMISTRY AT 298.15K
--------------------------

Temperature         ... 298.15 K
Pressure            ... 1.00 atm
Total Mass          ... 260.13 AMU

Throughout the following assumptions are being made:
  (1) The electronic state is orbitally nondegenerate
  (2) There are no thermally accessible electronically excited states
  (3) Hindered rotations indicated by low frequency modes are not
      treated as such but are treated as vibrations and this may
      cause some error
  (4) All equations used are the standard statistical mechanics
      equations for an ideal gas
  (5) All vibrations are strictly harmonic

freq.      21.48  E(vib)   ...       0.56 
freq.      30.38  E(vib)   ...       0.55 
freq.      43.16  E(vib)   ...       0.53 
freq.      67.87  E(vib)   ...       0.50 
freq.      76.51  E(vib)   ...       0.49 
freq.     139.04  E(vib)   ...       0.42 
freq.     148.29  E(vib)   ...       0.41 
freq.     186.06  E(vib)   ...       0.37 
freq.     216.48  E(vib)   ...       0.34 
freq.     225.76  E(vib)   ...       0.33 
freq.     234.01  E(vib)   ...       0.32 
freq.     237.50  E(vib)   ...       0.32 
freq.     251.08  E(vib)   ...       0.30 
freq.     267.41  E(vib)   ...       0.29 
freq.     284.50  E(vib)   ...       0.28 
freq.     319.52  E(vib)   ...       0.25 
freq.     335.49  E(vib)   ...       0.24 
freq.     351.77  E(vib)   ...       0.23 
freq.     361.82  E(vib)   ...       0.22 
freq.     367.80  E(vib)   ...       0.21 
freq.     375.44  E(vib)   ...       0.21 
freq.     392.33  E(vib)   ...       0.20 
freq.     400.66  E(vib)   ...       0.19 
freq.     409.21  E(vib)   ...       0.19 
freq.     418.53  E(vib)   ...       0.18 
freq.     443.18  E(vib)   ...       0.17 
freq.     480.41  E(vib)   ...       0.15 
freq.     494.98  E(vib)   ...       0.14 
freq.     530.45  E(vib)   ...       0.13 
freq.     569.03  E(vib)   ...       0.11 
freq.     592.09  E(vib)   ...       0.10 
freq.     645.20  E(vib)   ...       0.09 
freq.     746.36  E(vib)   ...       0.06 
freq.     819.57  E(vib)   ...       0.05 
freq.     859.92  E(vib)   ...       0.04 
freq.     885.82  E(vib)   ...       0.04 
freq.     906.41  E(vib)   ...       0.03 
freq.     913.21  E(vib)   ...       0.03 
freq.     984.14  E(vib)   ...       0.02 
freq.    1002.50  E(vib)   ...       0.02 
freq.    1033.72  E(vib)   ...       0.02 
freq.    1056.00  E(vib)   ...       0.02 
freq.    1067.66  E(vib)   ...       0.02 
freq.    1091.03  E(vib)   ...       0.02 
freq.    1102.78  E(vib)   ...       0.02 
freq.    1107.39  E(vib)   ...       0.02 
freq.    1110.74  E(vib)   ...       0.02 
freq.    1125.93  E(vib)   ...       0.01 
freq.    1133.63  E(vib)   ...       0.01 
freq.    1141.09  E(vib)   ...       0.01 
freq.    1148.88  E(vib)   ...       0.01 
freq.    1193.30  E(vib)   ...       0.01 
freq.    1202.83  E(vib)   ...       0.01 
freq.    1227.13  E(vib)   ...       0.01 
freq.    1244.33  E(vib)   ...       0.01 
freq.    1254.15  E(vib)   ...       0.01 
freq.    1263.21  E(vib)   ...       0.01 
freq.    1272.13  E(vib)   ...       0.01 
freq.    1276.12  E(vib)   ...       0.01 
freq.    1280.82  E(vib)   ...       0.01 
freq.    1307.29  E(vib)   ...       0.01 
freq.    1314.99  E(vib)   ...       0.01 
freq.    1325.37  E(vib)   ...       0.01 
freq.    1332.92  E(vib)   ...       0.01 
freq.    1338.06  E(vib)   ...       0.01 
freq.    1343.60  E(vib)   ...       0.01 
freq.    1368.51  E(vib)   ...       0.01 
freq.    1451.79  E(vib)   ...       0.00 
freq.    2837.03  E(vib)   ...       0.00 
freq.    2850.29  E(vib)   ...       0.00 
freq.    2852.82  E(vib)   ...       0.00 
freq.    2861.10  E(vib)   ...       0.00 
freq.    2880.13  E(vib)   ...       0.00 
freq.    2951.98  E(vib)   ...       0.00 
freq.    2969.92  E(vib)   ...       0.00 
freq.    3498.36  E(vib)   ...       0.00 
freq.    3505.27  E(vib)   ...       0.00 
freq.    3522.82  E(vib)   ...       0.00 
freq.    3524.99  E(vib)   ...       0.00 
freq.    3622.12  E(vib)   ...       0.00 
freq.    3627.77  E(vib)   ...       0.00 

------------
INNER ENERGY
------------

The inner energy is: U= E(el) + E(ZPE) + E(vib) + E(rot) + E(trans)
    E(el)   - is the total energy from the electronic structure calculation
              = E(kin-el) + E(nuc-el) + E(el-el) + E(nuc-nuc)
    E(ZPE)  - the the zero temperature vibrational energy from the frequency calculation
    E(vib)  - the the finite temperature correction to E(ZPE) due to population
              of excited vibrational states
    E(rot)  - is the rotational thermal energy
    E(trans)- is the translational thermal energy

Summary of contributions to the inner energy U:
Electronic energy                ...    -58.74808611 Eh
Zero point energy                ...      0.21108443 Eh     132.46 kcal/mol
Thermal vibrational correction   ...      0.01528830 Eh       9.59 kcal/mol
Thermal rotational correction    ...      0.00141627 Eh       0.89 kcal/mol
Thermal translational correction ...      0.00141627 Eh       0.89 kcal/mol
-----------------------------------------------------------------------
Total thermal energy                    -58.51888084 Eh


Summary of corrections to the electronic energy:
(perhaps to be used in another calculation)
Total thermal correction                  0.01812085 Eh      11.37 kcal/mol
Non-thermal (ZPE) correction              0.21108443 Eh     132.46 kcal/mol
-----------------------------------------------------------------------
Total correction                          0.22920527 Eh     143.83 kcal/mol


--------
ENTHALPY
--------

The enthalpy is H = U + kB*T
                kB is Boltzmann's constant
Total free energy                 ...    -58.51888084 Eh 
Thermal Enthalpy correction       ...      0.00094421 Eh       0.59 kcal/mol
-----------------------------------------------------------------------
Total Enthalpy                    ...    -58.51793663 Eh


Note: Only C1 symmetry has been detected, increase convergence thresholds 
      if your molecule has a higher symmetry. Symmetry factor of 1.0 is   
      used for the rotational entropy correction. 
 

Note: Rotational entropy computed according to Herzberg 
Infrared and Raman Spectra, Chapter V,1, Van Nostrand Reinhold, 1945 
Point Group:  C1, Symmetry Number:   1  
Rotational constants in cm-1:     0.031022     0.008618     0.007468 

Vibrational entropy computed according to the QRRHO of S. Grimme
Chem.Eur.J. 2012 18 9955


-------
ENTROPY
-------

The entropy contributions are T*S = T*(S(el)+S(vib)+S(rot)+S(trans))
     S(el)   - electronic entropy
     S(vib)  - vibrational entropy
     S(rot)  - rotational entropy
     S(trans)- translational entropy
The entropies will be listed as multiplied by the temperature to get
units of energy

Electronic entropy                ...      0.00000000 Eh      0.00 kcal/mol
Vibrational entropy               ...      0.02677807 Eh     16.80 kcal/mol
Rotational entropy                ...      0.01570658 Eh      9.86 kcal/mol
Translational entropy             ...      0.02022524 Eh     12.69 kcal/mol
-----------------------------------------------------------------------
Final entropy term                ...      0.06270989 Eh     39.35 kcal/mol

In case the symmetry of your molecule has not been determined correctly
or in case you have a reason to use a different symmetry number we print 
out the resulting rotational entropy values for sn=1,12 :
 --------------------------------------------------------
|  sn= 1 | S(rot)=       0.01570658 Eh      9.86 kcal/mol|
|  sn= 2 | S(rot)=       0.01505212 Eh      9.45 kcal/mol|
|  sn= 3 | S(rot)=       0.01466929 Eh      9.21 kcal/mol|
|  sn= 4 | S(rot)=       0.01439766 Eh      9.03 kcal/mol|
|  sn= 5 | S(rot)=       0.01418698 Eh      8.90 kcal/mol|
|  sn= 6 | S(rot)=       0.01401483 Eh      8.79 kcal/mol|
|  sn= 7 | S(rot)=       0.01386928 Eh      8.70 kcal/mol|
|  sn= 8 | S(rot)=       0.01374321 Eh      8.62 kcal/mol|
|  sn= 9 | S(rot)=       0.01363200 Eh      8.55 kcal/mol|
|  sn=10 | S(rot)=       0.01353252 Eh      8.49 kcal/mol|
|  sn=11 | S(rot)=       0.01344253 Eh      8.44 kcal/mol|
|  sn=12 | S(rot)=       0.01336037 Eh      8.38 kcal/mol|
 --------------------------------------------------------


-------------------
GIBBS FREE ENERGY
-------------------

The Gibbs free energy is G = H - T*S

Total enthalpy                    ...    -58.51793663 Eh 
Total entropy correction          ...     -0.06270989 Eh    -39.35 kcal/mol
-----------------------------------------------------------------------
Final Gibbs free energy         ...    -58.58064652 Eh

For completeness - the Gibbs free energy minus the electronic energy
G-E(el)                           ...      0.16743960 Eh    105.07 kcal/mol



Timings for individual modules:

Sum of individual times         ...      425.133 sec (=   7.086 min)
Geometry relaxation             ...        0.611 sec (=   0.010 min)   0.1 %
Numerical frequency calculation ...      423.951 sec (=   7.066 min)  99.7 %
XTB module                      ...        0.570 sec (=   0.009 min)   0.1 %
                             ****ORCA TERMINATED NORMALLY****
TOTAL RUN TIME: 0 days 0 hours 7 minutes 5 seconds 598 msec
