
                                 *****************
                                 * O   R   C   A *
                                 *****************

                                            #,                                       
                                            ###                                      
                                            ####                                     
                                            #####                                    
                                            ######                                   
                                           ########,                                 
                                     ,,################,,,,,                         
                               ,,#################################,,                 
                          ,,##########################################,,             
                       ,#########################################, ''#####,          
                    ,#############################################,,   '####,        
                  ,##################################################,,,,####,       
                ,###########''''           ''''###############################       
              ,#####''   ,,,,##########,,,,          '''####'''          '####       
            ,##' ,,,,###########################,,,                        '##       
           ' ,,###''''                  '''############,,,                           
         ,,##''                                '''############,,,,        ,,,,,,###''
      ,#''                                            '''#######################'''  
     '                                                          ''''####''''         
             ,#######,   #######,   ,#######,      ##                                
            ,#'     '#,  ##    ##  ,#'     '#,    #''#        ######   ,####,        
            ##       ##  ##   ,#'  ##            #'  '#       #        #'  '#        
            ##       ##  #######   ##           ,######,      #####,   #    #        
            '#,     ,#'  ##    ##  '#,     ,#' ,#      #,         ##   #,  ,#        
             '#######'   ##     ##  '#######'  #'      '#     #####' # '####'        



                  #######################################################
                  #                        -***-                        #
                  #          Department of theory and spectroscopy      #
                  #    Directorship and core code : Frank Neese         #
                  #        Max Planck Institute fuer Kohlenforschung    #
                  #                Kaiser Wilhelm Platz 1               #
                  #                 D-45470 Muelheim/Ruhr               #
                  #                      Germany                        #
                  #                                                     #
                  #                  All rights reserved                #
                  #                        -***-                        #
                  #######################################################


                         Program Version 5.0.3 -  RELEASE  -


 With contributions from (in alphabetic order):
   Daniel Aravena         : Magnetic Suceptibility
   Michael Atanasov       : Ab Initio Ligand Field Theory (pilot matlab implementation)
   Alexander A. Auer      : GIAO ZORA, VPT2 properties, NMR spectrum
   Ute Becker             : Parallelization
   Giovanni Bistoni       : ED, misc. LED, open-shell LED, HFLD
   Martin Brehm           : Molecular dynamics
   Dmytro Bykov           : SCF Hessian
   Vijay G. Chilkuri      : MRCI spin determinant printing, contributions to CSF-ICE
   Dipayan Datta          : RHF DLPNO-CCSD density
   Achintya Kumar Dutta   : EOM-CC, STEOM-CC
   Dmitry Ganyushin       : Spin-Orbit,Spin-Spin,Magnetic field MRCI
   Miquel Garcia          : C-PCM and meta-GGA Hessian, CC/C-PCM, Gaussian charge scheme
   Yang Guo               : DLPNO-NEVPT2, F12-NEVPT2, CIM, IAO-localization
   Andreas Hansen         : Spin unrestricted coupled pair/coupled cluster methods
   Benjamin Helmich-Paris : MC-RPA, TRAH-SCF, COSX integrals
   Lee Huntington         : MR-EOM, pCC
   Robert Izsak           : Overlap fitted RIJCOSX, COSX-SCS-MP3, EOM
   Marcus Kettner         : VPT2
   Christian Kollmar      : KDIIS, OOCD, Brueckner-CCSD(T), CCSD density, CASPT2, CASPT2-K
   Simone Kossmann        : Meta GGA functionals, TD-DFT gradient, OOMP2, MP2 Hessian
   Martin Krupicka        : Initial AUTO-CI
   Lucas Lang             : DCDCAS
   Marvin Lechner         : AUTO-CI (C++ implementation), FIC-MRCC
   Dagmar Lenk            : GEPOL surface, SMD
   Dimitrios Liakos       : Extrapolation schemes; Compound Job, initial MDCI parallelization
   Dimitrios Manganas     : Further ROCIS development; embedding schemes
   Dimitrios Pantazis     : SARC Basis sets
   Anastasios Papadopoulos: AUTO-CI, single reference methods and gradients
   Taras Petrenko         : DFT Hessian,TD-DFT gradient, ASA, ECA, R-Raman, ABS, FL, XAS/XES, NRVS
   Peter Pinski           : DLPNO-MP2, DLPNO-MP2 Gradient
   Christoph Reimann      : Effective Core Potentials
   Marius Retegan         : Local ZFS, SOC
   Christoph Riplinger    : Optimizer, TS searches, QM/MM, DLPNO-CCSD(T), (RO)-DLPNO pert. Triples
   Tobias Risthaus        : Range-separated hybrids, TD-DFT gradient, RPA, STAB
   Michael Roemelt        : Original ROCIS implementation
   Masaaki Saitow         : Open-shell DLPNO-CCSD energy and density
   Barbara Sandhoefer     : DKH picture change effects
   Avijit Sen             : IP-ROCIS
   Kantharuban Sivalingam : CASSCF convergence, NEVPT2, FIC-MRCI
   Bernardo de Souza      : ESD, SOC TD-DFT
   Georgi Stoychev        : AutoAux, RI-MP2 NMR, DLPNO-MP2 response
   Willem Van den Heuvel  : Paramagnetic NMR
   Boris Wezisla          : Elementary symmetry handling
   Frank Wennmohs         : Technical directorship


 We gratefully acknowledge several colleagues who have allowed us to
 interface, adapt or use parts of their codes:
   Stefan Grimme, W. Hujo, H. Kruse, P. Pracht,  : VdW corrections, initial TS optimization,
                  C. Bannwarth, S. Ehlert          DFT functionals, gCP, sTDA/sTD-DF
   Ed Valeev, F. Pavosevic, A. Kumar             : LibInt (2-el integral package), F12 methods
   Garnet Chan, S. Sharma, J. Yang, R. Olivares  : DMRG
   Ulf Ekstrom                                   : XCFun DFT Library
   Mihaly Kallay                                 : mrcc  (arbitrary order and MRCC methods)
   Jiri Pittner, Ondrej Demel                    : Mk-CCSD
   Frank Weinhold                                : gennbo (NPA and NBO analysis)
   Christopher J. Cramer and Donald G. Truhlar   : smd solvation model
   Lars Goerigk                                  : TD-DFT with DH, B97 family of functionals
   V. Asgeirsson, H. Jonsson                     : NEB implementation
   FAccTs GmbH                                   : IRC, NEB, NEB-TS, DLPNO-Multilevel, CI-OPT
                                                   MM, QMMM, 2- and 3-layer-ONIOM, Crystal-QMMM,
                                                   LR-CPCM, SF, NACMEs, symmetry and pop. for TD-DFT,
                                                   nearIR, NL-DFT gradient (VV10), updates on ESD,
                                                   ML-optimized integration grids
   S Lehtola, MJT Oliveira, MAL Marques          : LibXC Library
   Liviu Ungur et al                             : ANISO software


 Your calculation uses the libint2 library for the computation of 2-el integrals
 For citations please refer to: http://libint.valeyev.net

 Your ORCA version has been built with support for libXC version: 5.1.0
 For citations please refer to: https://tddft.org/programs/libxc/

 This ORCA versions uses:
   CBLAS   interface :  Fast vector & matrix operations
   LAPACKE interface :  Fast linear algebra routines
   SCALAPACK package :  Parallel linear algebra routines
   Shared memory     :  Shared parallel matrices
   BLAS/LAPACK       :  OpenBLAS 0.3.15  USE64BITINT DYNAMIC_ARCH NO_AFFINITY Haswell SINGLE_THREADED
        Core in use  :  Haswell
   Copyright (c) 2011-2014, The OpenBLAS Project


Your calculation utilizes the semiempirical GFN2-xTB method
Please cite in your paper:
C. Bannwarth, Ehlert S., S. Grimme,  J. Chem. Theory Comput., 15, (2019), 1652.
   

================================================================================

================================================================================
                                        WARNINGS
                       Please study these warnings very carefully!
================================================================================


WARNING: Geometry Optimization
  ===> : Switching off AutoStart
         For restart on a previous wavefunction, please use MOREAD

WARNING: Found dipole moment calculation with XTB calculation
  ===> : Switching off dipole moment calculation


WARNING: TRAH-SCF for XTB is not implemented!
  ===> : Turning TRAH off!

================================================================================
                                       INPUT FILE
================================================================================
NAME = /tmp/C01236.inp
|  1> ! XTB2 opt numfreq
|  2> * XYZ 0 1
|  3> O -2.1313 3.0967 -0.3981
|  4> C -1.8113 1.9602 -0.0570
|  5> O -0.9785 1.7831 0.9990
|  6> C -0.1654 0.6015 1.1750
|  7> C 1.2275 0.8606 0.5883
|  8> O 2.1001 -0.2088 0.9146
|  9> P 2.9448 -0.9308 -0.2324
| 10> O 3.9243 -1.9563 0.2139
| 11> O 3.6007 0.2439 -1.0827
| 12> O 1.8508 -1.5283 -1.2387
| 13> C -0.8419 -0.6744 0.6638
| 14> O -1.9144 -1.0272 1.5576
| 15> C -1.4349 -0.4534 -0.7301
| 16> O -0.4358 -0.2167 -1.7172
| 17> C -2.4228 0.7130 -0.6937
| 18> O -3.6288 0.3315 -0.0252
| 19> H -0.0484 0.4932 2.2610
| 20> H 1.1929 1.0505 -0.4876
| 21> H 1.6416 1.7735 1.0321
| 22> H 4.4811 0.4859 -0.7380
| 23> H 2.2939 -2.1657 -1.8351
| 24> H -0.1403 -1.5145 0.6539
| 25> H -1.5129 -1.3186 2.3987
| 26> H -1.9802 -1.3582 -1.0262
| 27> H 0.2407 -0.9255 -1.6589
| 28> H -2.6878 0.9840 -1.7226
| 29> H -3.3638 -0.0991 0.8150
| 30> *
| 31> 
| 32>                          ****END OF INPUT****
================================================================================

                       *****************************
                       * Geometry Optimization Run *
                       *****************************

Geometry optimization settings:
Update method            Update   .... BFGS
Choice of coordinates    CoordSys .... Z-matrix Internals
Initial Hessian          InHess   .... Almoef's Model

Convergence Tolerances:
Energy Change            TolE     ....  5.0000e-06 Eh
Max. Gradient            TolMAXG  ....  3.0000e-04 Eh/bohr
RMS Gradient             TolRMSG  ....  1.0000e-04 Eh/bohr
Max. Displacement        TolMAXD  ....  4.0000e-03 bohr
RMS Displacement         TolRMSD  ....  2.0000e-03 bohr
Strict Convergence                ....  False
------------------------------------------------------------------------------
                        ORCA OPTIMIZATION COORDINATE SETUP
------------------------------------------------------------------------------

The optimization will be done in new redundant internal coordinates
Making redundant internal coordinates   ...  (new redundants) done
Evaluating the initial hessian          ...  (Almloef) done
Evaluating the coordinates              ...  done
Calculating the B-matrix                .... done
Calculating the G-matrix                .... done
Diagonalizing the G-matrix              .... done
Small eigenvalue found = 9.134e-03
Small eigenvalue found = 9.919e-03
Small eigenvalue found = 2.501e-02
The first mode is                       ....   66
The number of degrees of freedom        ....   75

    -----------------------------------------------------------------
                    Redundant Internal Coordinates


    -----------------------------------------------------------------
         Definition                    Initial Value    Approx d2E/dq
    -----------------------------------------------------------------
      1. B(C   1,O   0)                  1.2290         1.011066   
      2. B(O   2,C   1)                  1.3565         0.632913   
      3. B(C   3,O   2)                  1.4451         0.457070   
      4. B(C   4,C   3)                  1.5335         0.368847   
      5. B(O   5,C   4)                  1.4183         0.504378   
      6. B(P   6,O   5)                  1.5970         0.879251   
      7. B(O   7,P   6)                  1.4867         1.318569   
      8. B(O   8,P   6)                  1.5916         0.896927   
      9. B(O   9,P   6)                  1.6020         0.863174   
     10. B(C  10,C   3)                  1.5320         0.370896   
     11. B(O  11,C  10)                  1.4400         0.465696   
     12. B(C  12,C  10)                  1.5308         0.372434   
     13. B(O  13,C  12)                  1.4243         0.493370   
     14. B(C  14,C  12)                  1.5290         0.374986   
     15. B(C  14,C   1)                  1.5280         0.376310   
     16. B(O  15,C  14)                  1.4307         0.481902   
     17. B(H  16,C   3)                  1.0976         0.350134   
     18. B(H  17,C   4)                  1.0931         0.356051   
     19. B(H  18,C   4)                  1.0963         0.351891   
     20. B(H  19,O   8)                  0.9760         0.490358   
     21. B(H  20,O   9)                  0.9789         0.485021   
     22. B(H  21,C  10)                  1.0946         0.354090   
     23. B(H  22,O  11)                  0.9765         0.489363   
     24. B(H  23,C  12)                  1.0971         0.350793   
     25. B(H  24,O  13)                  0.9816         0.480373   
     26. B(H  25,C  14)                  1.0965         0.351610   
     27. B(H  26,O  15)                  0.9806         0.482059   
     28. A(O   0,C   1,C  14)          122.3407         0.430432   
     29. A(O   2,C   1,C  14)          117.6139         0.396086   
     30. A(O   0,C   1,O   2)          119.7791         0.469910   
     31. A(C   1,O   2,C   3)          123.1619         0.407260   
     32. A(C  10,C   3,H  16)          107.1604         0.322448   
     33. A(C   4,C   3,C  10)          114.4668         0.362117   
     34. A(O   2,C   3,C   4)          109.0464         0.372985   
     35. A(O   2,C   3,C  10)          113.0721         0.373341   
     36. A(O   2,C   3,H  16)          105.1384         0.331738   
     37. A(C   4,C   3,H  16)          107.3609         0.322156   
     38. A(C   3,C   4,H  17)          112.1595         0.323042   
     39. A(O   5,C   4,H  18)          107.5987         0.337491   
     40. A(H  17,C   4,H  18)          105.4115         0.289275   
     41. A(C   3,C   4,O   5)          110.0860         0.379387   
     42. A(C   3,C   4,H  18)          109.2035         0.322420   
     43. A(O   5,C   4,H  17)          112.1431         0.338153   
     44. A(C   4,O   5,P   6)          120.0710         0.469918   
     45. A(O   7,P   6,O   9)          112.4090         0.601308   
     46. A(O   5,P   6,O   8)          105.5455         0.560486   
     47. A(O   5,P   6,O   7)          116.4058         0.603453   
     48. A(O   8,P   6,O   9)          102.7743         0.558521   
     49. A(O   7,P   6,O   8)          113.4517         0.605775   
     50. A(O   5,P   6,O   9)          104.9849         0.556410   
     51. A(P   6,O   8,H  19)          111.4739         0.416699   
     52. A(P   6,O   9,H  20)          108.4473         0.413062   
     53. A(C   3,C  10,C  12)          110.7730         0.362715   
     54. A(C   3,C  10,O  11)          109.0155         0.374547   
     55. A(C  12,C  10,H  21)          110.5400         0.323262   
     56. A(O  11,C  10,H  21)          107.1556         0.333388   
     57. A(C   3,C  10,H  21)          111.0506         0.323043   
     58. A(O  11,C  10,C  12)          108.1818         0.374815   
     59. A(C  10,O  11,H  22)          107.5482         0.348892   
     60. A(O  13,C  12,C  14)          110.0571         0.379021   
     61. A(C  14,C  12,H  23)          108.3259         0.323128   
     62. A(O  13,C  12,H  23)          107.3772         0.336078   
     63. A(C  10,C  12,C  14)          109.8003         0.363396   
     64. A(C  10,C  12,H  23)          108.6158         0.322766   
     65. A(C  10,C  12,O  13)          112.5393         0.378573   
     66. A(C  12,O  13,H  24)          108.8016         0.351208   
     67. A(C  12,C  14,O  15)          110.6311         0.377482   
     68. A(C   1,C  14,O  15)          111.1182         0.377712   
     69. A(O  15,C  14,H  25)          107.4956         0.334896   
     70. A(C  12,C  14,H  25)          108.8055         0.323251   
     71. A(C   1,C  14,C  12)          111.9635         0.364039   
     72. A(C   1,C  14,H  25)          106.6178         0.323438   
     73. A(C  14,O  15,H  26)          106.8369         0.350023   
     74. D(C   3,O   2,C   1,C  14)     29.5921         0.029480   
     75. D(C   3,O   2,C   1,O   0)   -156.1960         0.029480   
     76. D(C   4,C   3,O   2,C   1)     94.2942         0.016456   
     77. D(H  16,C   3,O   2,C   1)   -150.8448         0.016456   
     78. D(C  10,C   3,O   2,C   1)    -34.2635         0.016456   
     79. D(O   5,C   4,C   3,C  10)    -60.4372         0.010880   
     80. D(H  18,C   4,C   3,O   2)     53.8651         0.010880   
     81. D(H  18,C   4,C   3,H  16)    -59.5503         0.010880   
     82. D(H  17,C   4,C   3,H  16)   -176.0188         0.010880   
     83. D(H  17,C   4,C   3,C  10)     65.1727         0.010880   
     84. D(O   5,C   4,C   3,H  16)     58.3712         0.010880   
     85. D(O   5,C   4,C   3,O   2)    171.7866         0.010880   
     86. D(H  17,C   4,C   3,O   2)    -62.6034         0.010880   
     87. D(H  18,C   4,C   3,C  10)   -178.3588         0.010880   
     88. D(P   6,O   5,C   4,C   3)    128.5722         0.020123   
     89. D(P   6,O   5,C   4,H  18)   -112.5195         0.020123   
     90. D(P   6,O   5,C   4,H  17)      2.9529         0.020123   
     91. D(O   9,P   6,O   5,C   4)    -60.3939         0.013368   
     92. D(O   8,P   6,O   5,C   4)     47.7887         0.013368   
     93. D(O   7,P   6,O   5,C   4)    174.6108         0.013368   
     94. D(H  19,O   8,P   6,O   7)    -37.7508         0.013886   
     95. D(H  19,O   8,P   6,O   5)     90.8473         0.013886   
     96. D(H  19,O   8,P   6,O   9)   -159.3815         0.013886   
     97. D(H  20,O   9,P   6,O   8)     83.7066         0.012907   
     98. D(H  20,O   9,P   6,O   7)    -38.6305         0.012907   
     99. D(H  20,O   9,P   6,O   5)   -166.1015         0.012907   
    100. D(O  11,C  10,C   3,H  16)     43.5214         0.010994   
    101. D(O  11,C  10,C   3,C   4)    162.4429         0.010994   
    102. D(O  11,C  10,C   3,O   2)    -71.8583         0.010994   
    103. D(C  12,C  10,C   3,C   4)    -78.6287         0.010994   
    104. D(C  12,C  10,C   3,O   2)     47.0700         0.010994   
    105. D(H  21,C  10,C   3,H  16)    -74.3146         0.010994   
    106. D(H  21,C  10,C   3,C   4)     44.6069         0.010994   
    107. D(H  21,C  10,C   3,O   2)    170.3056         0.010994   
    108. D(C  12,C  10,C   3,H  16)    162.4498         0.010994   
    109. D(H  22,O  11,C  10,H  21)     50.9689         0.017090   
    110. D(H  22,O  11,C  10,C  12)    170.1705         0.017090   
    111. D(H  22,O  11,C  10,C   3)    -69.2962         0.017090   
    112. D(H  23,C  12,C  10,O  11)    -55.9352         0.011080   
    113. D(H  23,C  12,C  10,C   3)   -175.3660         0.011080   
    114. D(C  14,C  12,C  10,H  21)    179.3919         0.011080   
    115. D(C  14,C  12,C  10,O  11)     62.3525         0.011080   
    116. D(C  14,C  12,C  10,C   3)    -57.0783         0.011080   
    117. D(O  13,C  12,C  10,H  21)    -57.6471         0.011080   
    118. D(O  13,C  12,C  10,O  11)   -174.6865         0.011080   
    119. D(H  23,C  12,C  10,H  21)     61.1042         0.011080   
    120. D(O  13,C  12,C  10,C   3)     65.8828         0.011080   
    121. D(H  24,O  13,C  12,H  23)    -68.3574         0.019228   
    122. D(H  24,O  13,C  12,C  14)    173.9334         0.019228   
    123. D(H  24,O  13,C  12,C  10)     51.1164         0.019228   
    124. D(O  15,C  14,C  12,H  23)     45.4217         0.011223   
    125. D(O  15,C  14,C  12,O  13)    162.5418         0.011223   
    126. D(O  15,C  14,C  12,C  10)    -73.0453         0.011223   
    127. D(C   1,C  14,C  12,O  13)    -72.9207         0.011223   
    128. D(C   1,C  14,C  12,C  10)     51.4921         0.011223   
    129. D(H  25,C  14,C   1,O   2)   -156.4861         0.010580   
    130. D(H  25,C  14,C   1,O   0)     29.4606         0.010580   
    131. D(C   1,C  14,C  12,H  23)    169.9591         0.011223   
    132. D(O  15,C  14,C   1,O   2)     86.6678         0.010580   
    133. D(O  15,C  14,C   1,O   0)    -87.3856         0.010580   
    134. D(C  12,C  14,C   1,O   2)    -37.5984         0.010580   
    135. D(H  25,C  14,C  12,C  10)    169.0787         0.011223   
    136. D(C  12,C  14,C   1,O   0)    148.3483         0.010580   
    137. D(H  25,C  14,C  12,H  23)    -72.4543         0.011223   
    138. D(H  25,C  14,C  12,O  13)     44.6658         0.011223   
    139. D(H  26,O  15,C  14,H  25)    167.3693         0.018323   
    140. D(H  26,O  15,C  14,C  12)     48.6949         0.018323   
    141. D(H  26,O  15,C  14,C   1)    -76.3230         0.018323   
    -----------------------------------------------------------------

Number of atoms                         .... 27
Number of degrees of freedom            .... 141

         *************************************************************
         *                GEOMETRY OPTIMIZATION CYCLE   1            *
         *************************************************************
---------------------------------
CARTESIAN COORDINATES (ANGSTROEM)
---------------------------------
  O    -2.131300    3.096700   -0.398100
  C    -1.811300    1.960200   -0.057000
  O    -0.978500    1.783100    0.999000
  C    -0.165400    0.601500    1.175000
  C     1.227500    0.860600    0.588300
  O     2.100100   -0.208800    0.914600
  P     2.944800   -0.930800   -0.232400
  O     3.924300   -1.956300    0.213900
  O     3.600700    0.243900   -1.082700
  O     1.850800   -1.528300   -1.238700
  C    -0.841900   -0.674400    0.663800
  O    -1.914400   -1.027200    1.557600
  C    -1.434900   -0.453400   -0.730100
  O    -0.435800   -0.216700   -1.717200
  C    -2.422800    0.713000   -0.693700
  O    -3.628800    0.331500   -0.025200
  H    -0.048400    0.493200    2.261000
  H     1.192900    1.050500   -0.487600
  H     1.641600    1.773500    1.032100
  H     4.481100    0.485900   -0.738000
  H     2.293900   -2.165700   -1.835100
  H    -0.140300   -1.514500    0.653900
  H    -1.512900   -1.318600    2.398700
  H    -1.980200   -1.358200   -1.026200
  H     0.240700   -0.925500   -1.658900
  H    -2.687800    0.984000   -1.722600
  H    -3.363800   -0.099100    0.815000

----------------------------
CARTESIAN COORDINATES (A.U.)
----------------------------
  NO LB    ZA    FRAG    MASS        X           Y           Z
   0 O   8.0000    0    15.999   -4.027573    5.851915   -0.752300
   1 C   6.0000    0    12.011   -3.422861    3.704241   -0.107714
   2 O   8.0000    0    15.999   -1.849097    3.369571    1.887836
   3 C   6.0000    0    12.011   -0.312561    1.136670    2.220428
   4 C   6.0000    0    12.011    2.319639    1.626298    1.111726
   5 O   8.0000    0    15.999    3.968614   -0.394575    1.728344
   6 P  15.0000    0    30.974    5.564866   -1.758957   -0.439172
   7 O   8.0000    0    15.999    7.415852   -3.696871    0.404212
   8 O   8.0000    0    15.999    6.804337    0.460904   -2.046006
   9 O   8.0000    0    15.999    3.497505   -2.888068   -2.340804
  10 C   6.0000    0    12.011   -1.590960   -1.274431    1.254400
  11 O   8.0000    0    15.999   -3.617692   -1.941127    2.943437
  12 C   6.0000    0    12.011   -2.711568   -0.856802   -1.379689
  13 O   8.0000    0    15.999   -0.823543   -0.409504   -3.245038
  14 C   6.0000    0    12.011   -4.578428    1.347375   -1.310903
  15 O   8.0000    0    15.999   -6.857438    0.626444   -0.047621
  16 H   1.0000    0     1.008   -0.091463    0.932013    4.272671
  17 H   1.0000    0     1.008    2.254254    1.985157   -0.921430
  18 H   1.0000    0     1.008    3.102174    3.351429    1.950386
  19 H   1.0000    0     1.008    8.468052    0.918218   -1.394618
  20 H   1.0000    0     1.008    4.334843   -4.092580   -3.467836
  21 H   1.0000    0     1.008   -0.265129   -2.861990    1.235692
  22 H   1.0000    0     1.008   -2.858967   -2.491793    4.532886
  23 H   1.0000    0     1.008   -3.742036   -2.566626   -1.939237
  24 H   1.0000    0     1.008    0.454857   -1.748942   -3.134867
  25 H   1.0000    0     1.008   -5.079206    1.859491   -3.255242
  26 H   1.0000    0     1.008   -6.356661   -0.187272    1.540127

      -----------------------------------------------------------      
     |                   =====================                   |     
     |                           x T B                           |     
     |                   =====================                   |     
     |                         S. Grimme                         |     
     |          Mulliken Center for Theoretical Chemistry        |     
     |                    University of Bonn                     |     
      -----------------------------------------------------------      

   * xtb version 6.5.1 (579679a) compiled by 'ehlert@majestix' on 2022-07-11

   xtb is free software: you can redistribute it and/or modify it under
   the terms of the GNU Lesser General Public License as published by
   the Free Software Foundation, either version 3 of the License, or
   (at your option) any later version.
   
   xtb is distributed in the hope that it will be useful,
   but WITHOUT ANY WARRANTY; without even the implied warranty of
   MERCHANTABILITY or FITNESS FOR A PARTICULAR PURPOSE.  See the
   GNU Lesser General Public License for more details.
   
   Cite this work as:
   * C. Bannwarth, E. Caldeweyher, S. Ehlert, A. Hansen, P. Pracht,
     J. Seibert, S. Spicher, S. Grimme, WIREs Comput. Mol. Sci., 2020, 11,
     e01493. DOI: 10.1002/wcms.1493
   
   for GFN2-xTB:
   * C. Bannwarth, S. Ehlert and S. Grimme., J. Chem. Theory Comput., 2019,
     15, 1652-1671. DOI: 10.1021/acs.jctc.8b01176
   for GFN1-xTB:
   * S. Grimme, C. Bannwarth, P. Shushkov, J. Chem. Theory Comput., 2017,
     13, 1989-2009. DOI: 10.1021/acs.jctc.7b00118
   for GFN0-xTB:
   * P. Pracht, E. Caldeweyher, S. Ehlert, S. Grimme, ChemRxiv, 2019, preprint.
     DOI: 10.26434/chemrxiv.8326202.v1
   for GFN-FF:
   * S. Spicher and S. Grimme, Angew. Chem. Int. Ed., 2020, 59, 15665-15673.
     DOI: 10.1002/anie.202004239
   
   for ALPB and GBSA implicit solvation:
   * S. Ehlert, M. Stahn, S. Spicher, S. Grimme, J. Chem. Theory Comput.,
     2021, 17, 4250-4261. DOI: 10.1021/acs.jctc.1c00471
   
   for DFT-D4:
   * E. Caldeweyher, C. Bannwarth and S. Grimme, J. Chem. Phys., 2017,
     147, 034112. DOI: 10.1063/1.4993215
   * E. Caldeweyher, S. Ehlert, A. Hansen, H. Neugebauer, S. Spicher,
     C. Bannwarth and S. Grimme, J. Chem. Phys., 2019, 150, 154122.
     DOI: 10.1063/1.5090222
   * E. Caldeweyher, J.-M. Mewes, S. Ehlert and S. Grimme, Phys. Chem. Chem. Phys.
     2020, 22, 8499-8512. DOI: 10.1039/D0CP00502A
   
   for sTDA-xTB:
   * S. Grimme and C. Bannwarth, J. Chem. Phys., 2016, 145, 054103.
     DOI: 10.1063/1.4959605
   
   in the mass-spec context:
   * V. Asgeirsson, C. Bauer and S. Grimme, Chem. Sci., 2017, 8, 4879.
     DOI: 10.1039/c7sc00601b
   * J. Koopman and S. Grimme, ACS Omega 2019, 4, 12, 15120-15133.
     DOI: 10.1021/acsomega.9b02011
   
   for metadynamics refer to:
   * S. Grimme, J. Chem. Theory Comput., 2019, 155, 2847-2862
     DOI: 10.1021/acs.jctc.9b00143
   
   for SPH calculations refer to:
   * S. Spicher and S. Grimme, J. Chem. Theory Comput., 2021, 17, 1701-1714
     DOI: 10.1021/acs.jctc.0c01306
   
   with help from (in alphabetical order)
   P. Atkinson, C. Bannwarth, F. Bohle, G. Brandenburg, E. Caldeweyher
   M. Checinski, S. Dohm, S. Ehlert, S. Ehrlich, I. Gerasimov, C. Hölzer
   A. Katbashev, J. Koopman, C. Lavigne, S. Lehtola, F. März, M. Müller,
   F. Musil, H. Neugebauer, J. Pisarek, C. Plett, P. Pracht, F. Pultar,
   J. Seibert, P. Shushkov, S. Spicher, M. Stahn, M. Steiner, T. Strunk,
   J. Stückrath, T. Rose, and J. Unsleber
   
 * started run on 2023/12/04 at 14:37:22.970     

           -------------------------------------------------
          |                Calculation Setup                |
           -------------------------------------------------

          program call               : otool_xtb /tmp/C01236_XTB.xyz --grad -c 0 -u 0 -P 1 --namespace /tmp/C01236 --input /tmp/C01236_XTB.input.tmp --acc 1.000000
          calculation namespace      : /tmp/C01236
          coordinate file            : /tmp/C01236_XTB.xyz
          omp threads                :                     1

   ID    Z sym.   atoms
    1    8 O      1, 3, 6, 8-10, 12, 14, 16
    2    6 C      2, 4, 5, 11, 13, 15
    3   15 P      7
    4    1 H      17-27

           -------------------------------------------------
          |                 G F N 2 - x T B                 |
           -------------------------------------------------

        Reference                      10.1021/acs.jctc.8b01176
      * Hamiltonian:
        H0-scaling (s, p, d)           1.850000    2.230000    2.230000
        zeta-weighting                 0.500000
      * Dispersion:
        s8                             2.700000
        a1                             0.520000
        a2                             5.000000
        s9                             5.000000
      * Repulsion:
        kExp                           1.500000    1.000000
        rExp                           1.000000
      * Coulomb:
        alpha                          2.000000
        third order                    shell-resolved
        anisotropic                    true
        a3                             3.000000
        a5                             4.000000
        cn-shift                       1.200000
        cn-exp                         4.000000
        max-rad                        5.000000


          ...................................................
          :                      SETUP                      :
          :.................................................:
          :  # basis functions                  81          :
          :  # atomic orbitals                  80          :
          :  # shells                           44          :
          :  # electrons                        94          :
          :  max. iterations                   250          :
          :  Hamiltonian                  GFN2-xTB          :
          :  restarted?                      false          :
          :  GBSA solvation                  false          :
          :  PC potential                    false          :
          :  electronic temp.          300.0000000     K    :
          :  accuracy                    1.0000000          :
          :  -> integral cutoff          0.2500000E+02      :
          :  -> integral neglect         0.1000000E-07      :
          :  -> SCF convergence          0.1000000E-05 Eh   :
          :  -> wf. convergence          0.1000000E-03 e    :
          :  Broyden damping             0.4000000          :
          ...................................................

 iter      E             dE          RMSdq      gap      omega  full diag
   1    -57.9712341 -0.579712E+02  0.628E+00    4.42       0.0  T
   2    -58.0518268 -0.805927E-01  0.349E+00    3.73       1.0  T
   3    -58.0585667 -0.673989E-02  0.131E+00    4.17       1.0  T
   4    -58.0712092 -0.126426E-01  0.560E-01    3.80       1.0  T
   5    -58.0721481 -0.938864E-03  0.196E-01    3.91       1.0  T
   6    -58.0723566 -0.208549E-03  0.681E-02    3.87       1.0  T
   7    -58.0723647 -0.802521E-05  0.266E-02    3.87       1.0  T
   8    -58.0723670 -0.231718E-05  0.101E-02    3.87       1.9  T
   9    -58.0723672 -0.260524E-06  0.396E-03    3.87       4.9  T
  10    -58.0723673 -0.821809E-07  0.123E-03    3.87      15.7  T
  11    -58.0723673 -0.247361E-08  0.484E-04    3.87      39.8  T
  12    -58.0723673 -0.143110E-08  0.165E-04    3.87     116.6  T

   *** convergence criteria satisfied after 12 iterations ***

         #    Occupation            Energy/Eh            Energy/eV
      -------------------------------------------------------------
         1        2.0000           -0.7777412             -21.1634
       ...           ...                  ...                  ...
        41        2.0000           -0.4657347             -12.6733
        42        2.0000           -0.4619698             -12.5708
        43        2.0000           -0.4601944             -12.5225
        44        2.0000           -0.4581245             -12.4662
        45        2.0000           -0.4512743             -12.2798
        46        2.0000           -0.4380373             -11.9196
        47        2.0000           -0.4069629             -11.0740 (HOMO)
        48                         -0.2646535              -7.2016 (LUMO)
        49                         -0.1220682              -3.3216
        50                         -0.0866524              -2.3579
        51                         -0.0680180              -1.8509
        52                         -0.0578796              -1.5750
       ...                                ...                  ...
        80                          1.2206777              33.2163
      -------------------------------------------------------------
                  HL-Gap            0.1423094 Eh            3.8724 eV
             Fermi-level           -0.3358082 Eh           -9.1378 eV

 SCC (total)                   0 d,  0 h,  0 min,  0.035 sec
 SCC setup                      ...        0 min,  0.000 sec (  0.520%)
 Dispersion                     ...        0 min,  0.000 sec (  0.575%)
 classical contributions        ...        0 min,  0.000 sec (  0.124%)
 integral evaluation            ...        0 min,  0.005 sec ( 15.288%)
 iterations                     ...        0 min,  0.014 sec ( 38.572%)
 molecular gradient             ...        0 min,  0.016 sec ( 44.448%)
 printout                       ...        0 min,  0.000 sec (  0.429%)

         :::::::::::::::::::::::::::::::::::::::::::::::::::::
         ::                     SUMMARY                     ::
         :::::::::::::::::::::::::::::::::::::::::::::::::::::
         :: total energy             -57.711905436165 Eh    ::
         :: gradient norm              0.103280909319 Eh/a0 ::
         :: HOMO-LUMO gap              3.872436475666 eV    ::
         ::.................................................::
         :: SCC energy               -58.072367329060 Eh    ::
         :: -> isotropic ES            0.220363186560 Eh    ::
         :: -> anisotropic ES         -0.003750571104 Eh    ::
         :: -> anisotropic XC         -0.005397697534 Eh    ::
         :: -> dispersion             -0.027102817810 Eh    ::
         :: repulsion energy           0.360168844610 Eh    ::
         :: add. restraining           0.000000000000 Eh    ::
         :: total charge               0.000000000000 e     ::
         :::::::::::::::::::::::::::::::::::::::::::::::::::::


Property printout bound to 'properties.out'

           -------------------------------------------------
          | TOTAL ENERGY              -57.711905436165 Eh   |
          | GRADIENT NORM               0.103280909319 Eh/α |
          | HOMO-LUMO GAP               3.872436475666 eV   |
           -------------------------------------------------

------------------------------------------------------------------------
 * finished run on 2023/12/04 at 14:37:23.017     
------------------------------------------------------------------------
 total:
 * wall-time:     0 d,  0 h,  0 min,  0.047 sec
 *  cpu-time:     0 d,  0 h,  0 min,  0.044 sec
 * ratio c/w:     0.930 speedup
 SCF:
 * wall-time:     0 d,  0 h,  0 min,  0.036 sec
 *  cpu-time:     0 d,  0 h,  0 min,  0.036 sec
 * ratio c/w:     1.012 speedup


-------------------------   --------------------
FINAL SINGLE POINT ENERGY       -57.711905436170
-------------------------   --------------------

------------------------------------------------------------------------------
                         ORCA GEOMETRY RELAXATION STEP
------------------------------------------------------------------------------

Reading the OPT-File                    .... done
Getting information on internals        .... done
Copying old internal coords+grads       .... done
Making the new internal coordinates     .... (new redundants).... done
Validating the new internal coordinates .... (new redundants).... done
Calculating the B-matrix                .... done
Calculating the G,G- and P matrices     .... done
Transforming gradient to internals      .... done
Projecting the internal gradient        .... done
Number of atoms                         ....  27
Number of internal coordinates          .... 141
Current Energy                          ....   -57.711905436 Eh
Current gradient norm                   ....     0.103280909 Eh/bohr
Maximum allowed component of the step   ....  0.300
Current trust radius                    ....  0.300
Evaluating the initial hessian          ....  (Almloef) done
Projecting the Hessian                  .... done
Forming the augmented Hessian           .... done
Diagonalizing the augmented Hessian     .... done
Last element of RFO vector              ....  0.895165080
Lowest eigenvalues of augmented Hessian:
 -0.021175455  0.012200826  0.012907542  0.013474980  0.013870049
Length of the computed step             ....  0.497935825
Warning: the length of the step is outside the trust region - taking restricted step instead
The input lambda is                     ....    -0.021175
   iter:   1  x=   -0.033739  g=   12.571742 f(x)=     0.157940
   iter:   2  x=   -0.045095  g=    5.032571 f(x)=     0.057150
   iter:   3  x=   -0.050638  g=    2.713833 f(x)=     0.015043
   iter:   4  x=   -0.051485  g=    2.105984 f(x)=     0.001785
   iter:   5  x=   -0.051501  g=    2.030422 f(x)=     0.000032
   iter:   6  x=   -0.051501  g=    2.029040 f(x)=     0.000000
   iter:   7  x=   -0.051501  g=    2.029040 f(x)=     0.000000
The output lambda is                    ....    -0.051501 (7 iterations)
The final length of the internal step   ....  0.300000000
Converting the step to cartesian space:
 Initial RMS(Int)=    0.0252645576
Transforming coordinates:
 Iter   0:  RMS(Cart)=    0.1865853621 RMS(Int)=    0.7445616512
 Iter   1:  RMS(Cart)=    0.0089891133 RMS(Int)=    0.0043565472
 Iter   2:  RMS(Cart)=    0.0010998655 RMS(Int)=    0.0002070817
 Iter   3:  RMS(Cart)=    0.0001303688 RMS(Int)=    0.0000656821
 Iter   4:  RMS(Cart)=    0.0000160803 RMS(Int)=    0.0000038437
 Iter   5:  RMS(Cart)=    0.0000020582 RMS(Int)=    0.0000010493
 Iter   6:  RMS(Cart)=    0.0000002558 RMS(Int)=    0.0000000717
 Iter   7:  RMS(Cart)=    0.0000000326 RMS(Int)=    0.0000000171
done
Storing new coordinates                 .... done

                                .--------------------.
          ----------------------|Geometry convergence|-------------------------
          Item                value                   Tolerance       Converged
          ---------------------------------------------------------------------
          RMS gradient        0.0075994643            0.0001000000      NO
          MAX gradient        0.0516995723            0.0003000000      NO
          RMS step            0.0252645576            0.0020000000      NO
          MAX step            0.0965194718            0.0040000000      NO
          ........................................................
          Max(Bonds)      0.0257      Max(Angles)    3.12
          Max(Dihed)        5.53      Max(Improp)    0.00
          ---------------------------------------------------------------------

The optimization has not yet converged - more geometry cycles are needed


    ---------------------------------------------------------------------------
                         Redundant Internal Coordinates
                            (Angstroem and degrees)

        Definition                    Value    dE/dq     Step     New-Value
    ----------------------------------------------------------------------------
     1. B(C   1,O   0)                1.2290  0.051700 -0.0257    1.2032   
     2. B(O   2,C   1)                1.3565  0.009478 -0.0082    1.3483   
     3. B(C   3,O   2)                1.4451  0.014173 -0.0154    1.4297   
     4. B(C   4,C   3)                1.5335 -0.001847  0.0023    1.5358   
     5. B(O   5,C   4)                1.4183 -0.007636  0.0073    1.4255   
     6. B(P   6,O   5)                1.5970  0.003511 -0.0020    1.5950   
     7. B(O   7,P   6)                1.4867  0.035519 -0.0137    1.4730   
     8. B(O   8,P   6)                1.5916 -0.002833  0.0016    1.5932   
     9. B(O   9,P   6)                1.6020  0.003238 -0.0019    1.6002   
    10. B(C  10,C   3)                1.5320 -0.001462  0.0020    1.5339   
    11. B(O  11,C  10)                1.4400  0.011000 -0.0113    1.4287   
    12. B(C  12,C  10)                1.5308 -0.007705  0.0112    1.5421   
    13. B(O  13,C  12)                1.4243  0.015007 -0.0146    1.4097   
    14. B(C  14,C  12)                1.5290  0.001013 -0.0008    1.5282   
    15. B(C  14,C   1)                1.5280  0.001957 -0.0027    1.5253   
    16. B(O  15,C  14)                1.4307  0.018605 -0.0185    1.4122   
    17. B(H  16,C   3)                1.0976 -0.000856  0.0011    1.0988   
    18. B(H  17,C   4)                1.0931 -0.000467  0.0006    1.0937   
    19. B(H  18,C   4)                1.0963 -0.000480  0.0006    1.0969   
    20. B(H  19,O   8)                0.9760  0.016800 -0.0164    0.9595   
    21. B(H  20,O   9)                0.9789  0.016977 -0.0167    0.9622   
    22. B(H  21,C  10)                1.0946 -0.001988  0.0026    1.0972   
    23. B(H  22,O  11)                0.9765  0.010606 -0.0104    0.9661   
    24. B(H  23,C  12)                1.0971 -0.003329  0.0044    1.1015   
    25. B(H  24,O  13)                0.9816  0.012782 -0.0127    0.9688   
    26. B(H  25,C  14)                1.0965  0.001032 -0.0014    1.0951   
    27. B(H  26,O  15)                0.9806  0.009284 -0.0092    0.9714   
    28. A(O   0,C   1,C  14)          122.34 -0.001856    0.14    122.48   
    29. A(O   2,C   1,C  14)          117.61 -0.004897    0.69    118.30   
    30. A(O   0,C   1,O   2)          119.78  0.006757   -0.84    118.94   
    31. A(C   1,O   2,C   3)          123.16 -0.004125    0.71    123.87   
    32. A(C  10,C   3,H  16)          107.16 -0.004298    1.03    108.19   
    33. A(C   4,C   3,C  10)          114.47 -0.001132    0.46    114.92   
    34. A(O   2,C   3,C   4)          109.05 -0.000257    0.14    109.19   
    35. A(O   2,C   3,C  10)          113.07  0.000506    0.11    113.18   
    36. A(O   2,C   3,H  16)          105.14  0.001833   -0.98    104.15   
    37. A(C   4,C   3,H  16)          107.36  0.003739   -0.93    106.44   
    38. A(C   3,C   4,H  17)          112.16  0.000407    0.36    112.52   
    39. A(O   5,C   4,H  18)          107.60  0.002586   -1.19    106.41   
    40. A(H  17,C   4,H  18)          105.41 -0.004179    1.09    106.50   
    41. A(C   3,C   4,O   5)          110.09  0.000626   -0.24    109.85   
    42. A(C   3,C   4,H  18)          109.20  0.005432   -1.51    107.70   
    43. A(O   5,C   4,H  17)          112.14 -0.004621    1.37    113.52   
    44. A(C   4,O   5,P   6)          120.07 -0.028352    3.12    123.19   
    45. A(O   7,P   6,O   9)          112.41 -0.001674    0.19    112.59   
    46. A(O   5,P   6,O   8)          105.55 -0.001818    0.20    105.74   
    47. A(O   5,P   6,O   7)          116.41  0.008036   -1.02    115.38   
    48. A(O   8,P   6,O   9)          102.77  0.003339   -0.18    102.59   
    49. A(O   7,P   6,O   8)          113.45 -0.004857    0.59    114.04   
    50. A(O   5,P   6,O   9)          104.98 -0.003460    0.31    105.29   
    51. A(P   6,O   8,H  19)          111.47  0.002531   -0.31    111.16   
    52. A(P   6,O   9,H  20)          108.45  0.002364   -0.29    108.16   
    53. A(C   3,C  10,C  12)          110.77  0.001059    0.25    111.03   
    54. A(C   3,C  10,O  11)          109.02 -0.003862    0.37    109.39   
    55. A(C  12,C  10,H  21)          110.54 -0.003659    0.41    110.95   
    56. A(O  11,C  10,H  21)          107.16 -0.001267    0.49    107.65   
    57. A(C   3,C  10,H  21)          111.05  0.003312   -0.73    110.32   
    58. A(O  11,C  10,C  12)          108.18  0.004356   -0.79    107.39   
    59. A(C  10,O  11,H  22)          107.55 -0.004890    0.70    108.25   
    60. A(O  13,C  12,C  14)          110.06  0.009197   -2.45    107.61   
    61. A(C  14,C  12,H  23)          108.33 -0.001520    0.20    108.53   
    62. A(O  13,C  12,H  23)          107.38 -0.003561    1.23    108.61   
    63. A(C  10,C  12,C  14)          109.80 -0.000171    0.32    110.12   
    64. A(C  10,C  12,H  23)          108.62  0.001015    0.07    108.69   
    65. A(C  10,C  12,O  13)          112.54 -0.005058    0.67    113.21   
    66. A(C  12,O  13,H  24)          108.80 -0.001475    0.21    109.01   
    67. A(C  12,C  14,O  15)          110.63 -0.006402    1.09    111.72   
    68. A(C   1,C  14,O  15)          111.12  0.002357   -0.44    110.68   
    69. A(O  15,C  14,H  25)          107.50  0.003216   -0.59    106.90   
    70. A(C  12,C  14,H  25)          108.81 -0.001290    0.28    109.09   
    71. A(C   1,C  14,C  12)          111.96  0.005488   -0.71    111.25   
    72. A(C   1,C  14,H  25)          106.62 -0.003375    0.35    106.97   
    73. A(C  14,O  15,H  26)          106.84 -0.003288    0.47    107.31   
    74. D(C   3,O   2,C   1,C  14)     29.59 -0.000900   -0.22     29.37   
    75. D(C   3,O   2,C   1,O   0)   -156.20 -0.000987   -0.28   -156.48   
    76. D(C   4,C   3,O   2,C   1)     94.29 -0.003720    2.17     96.46   
    77. D(H  16,C   3,O   2,C   1)   -150.84  0.001400    0.67   -150.17   
    78. D(C  10,C   3,O   2,C   1)    -34.26 -0.002389    1.36    -32.90   
    79. D(O   5,C   4,C   3,C  10)    -60.44  0.008680   -4.91    -65.34   
    80. D(H  18,C   4,C   3,O   2)     53.87  0.002342   -3.04     50.83   
    81. D(H  18,C   4,C   3,H  16)    -59.55 -0.001582   -1.49    -61.04   
    82. D(H  17,C   4,C   3,H  16)   -176.02 -0.000092   -2.10   -178.11   
    83. D(H  17,C   4,C   3,C  10)     65.17  0.003406   -3.02     62.15   
    84. D(O   5,C   4,C   3,H  16)     58.37  0.005182   -3.98     54.39   
    85. D(O   5,C   4,C   3,O   2)    171.79  0.009106   -5.53    166.26   
    86. D(H  17,C   4,C   3,O   2)    -62.60  0.003833   -3.65    -66.25   
    87. D(H  18,C   4,C   3,C  10)   -178.36  0.001916   -2.41   -180.77   
    88. D(P   6,O   5,C   4,C   3)    128.57 -0.006233    3.41    131.99   
    89. D(P   6,O   5,C   4,H  18)   -112.52  0.002199    0.76   -111.76   
    90. D(P   6,O   5,C   4,H  17)      2.95 -0.003818    2.11      5.06   
    91. D(O   9,P   6,O   5,C   4)    -60.39  0.003275   -3.31    -63.70   
    92. D(O   8,P   6,O   5,C   4)     47.79  0.004962   -3.32     44.47   
    93. D(O   7,P   6,O   5,C   4)    174.61  0.002784   -3.11    171.50   
    94. D(H  19,O   8,P   6,O   7)    -37.75 -0.003460    1.07    -36.68   
    95. D(H  19,O   8,P   6,O   5)     90.85  0.002136    0.31     91.16   
    96. D(H  19,O   8,P   6,O   9)   -159.38 -0.001005    0.65   -158.73   
    97. D(H  20,O   9,P   6,O   8)     83.71 -0.001077    0.31     84.01   
    98. D(H  20,O   9,P   6,O   7)    -38.63  0.003550   -0.39    -39.02   
    99. D(H  20,O   9,P   6,O   5)   -166.10 -0.003005    0.56   -165.54   
   100. D(O  11,C  10,C   3,H  16)     43.52  0.000655   -1.79     41.73   
   101. D(O  11,C  10,C   3,C   4)    162.44  0.001691   -1.96    160.48   
   102. D(O  11,C  10,C   3,O   2)    -71.86  0.000808   -1.29    -73.15   
   103. D(C  12,C  10,C   3,C   4)    -78.63  0.005270   -2.56    -81.18   
   104. D(C  12,C  10,C   3,O   2)     47.07  0.004387   -1.88     45.19   
   105. D(H  21,C  10,C   3,H  16)    -74.31  0.002627   -2.19    -76.50   
   106. D(H  21,C  10,C   3,C   4)     44.61  0.003663   -2.36     42.24   
   107. D(H  21,C  10,C   3,O   2)    170.31  0.002780   -1.69    168.62   
   108. D(C  12,C  10,C   3,H  16)    162.45  0.004234   -2.38    160.07   
   109. D(H  22,O  11,C  10,H  21)     50.97  0.000942    0.02     50.99   
   110. D(H  22,O  11,C  10,C  12)    170.17 -0.001737    0.35    170.52   
   111. D(H  22,O  11,C  10,C   3)    -69.30 -0.000128    0.40    -68.90   
   112. D(H  23,C  12,C  10,O  11)    -55.94 -0.001844    0.75    -55.19   
   113. D(H  23,C  12,C  10,C   3)   -175.37 -0.000454    0.64   -174.73   
   114. D(C  14,C  12,C  10,H  21)    179.39 -0.004195    1.57    180.96   
   115. D(C  14,C  12,C  10,O  11)     62.35 -0.003181    1.22     63.57   
   116. D(C  14,C  12,C  10,C   3)    -57.08 -0.001792    1.11    -55.97   
   117. D(O  13,C  12,C  10,H  21)    -57.65  0.003997   -0.89    -58.53   
   118. D(O  13,C  12,C  10,O  11)   -174.69  0.005011   -1.24   -175.92   
   119. D(H  23,C  12,C  10,H  21)     61.10 -0.002858    1.10     62.20   
   120. D(O  13,C  12,C  10,C   3)     65.88  0.006401   -1.35     64.53   
   121. D(H  24,O  13,C  12,H  23)    -68.36  0.001617   -0.46    -68.82   
   122. D(H  24,O  13,C  12,C  14)    173.93  0.000475   -0.07    173.86   
   123. D(H  24,O  13,C  12,C  10)     51.12 -0.002461    0.83     51.95   
   124. D(O  15,C  14,C  12,H  23)     45.42 -0.000329    0.15     45.57   
   125. D(O  15,C  14,C  12,O  13)    162.54 -0.000350    0.37    162.91   
   126. D(O  15,C  14,C  12,C  10)    -73.05 -0.000561   -0.24    -73.29   
   127. D(C   1,C  14,C  12,O  13)    -72.92  0.001963    0.10    -72.82   
   128. D(C   1,C  14,C  12,C  10)     51.49  0.001753   -0.51     50.98   
   129. D(H  25,C  14,C   1,O   2)   -156.49  0.000990   -0.23   -156.71   
   130. D(H  25,C  14,C   1,O   0)     29.46  0.000554   -0.11     29.36   
   131. D(C   1,C  14,C  12,H  23)    169.96  0.001984   -0.12    169.83   
   132. D(O  15,C  14,C   1,O   2)     86.67 -0.002135    0.51     87.18   
   133. D(O  15,C  14,C   1,O   0)    -87.39 -0.002571    0.63    -86.75   
   134. D(C  12,C  14,C   1,O   2)    -37.60  0.000402   -0.07    -37.67   
   135. D(H  25,C  14,C  12,C  10)    169.08  0.000045   -0.33    168.75   
   136. D(C  12,C  14,C   1,O   0)    148.35 -0.000034    0.05    148.40   
   137. D(H  25,C  14,C  12,H  23)    -72.45  0.000277    0.06    -72.39   
   138. D(H  25,C  14,C  12,O  13)     44.67  0.000256    0.29     44.95   
   139. D(H  26,O  15,C  14,H  25)    167.37 -0.000963    0.40    167.77   
   140. D(H  26,O  15,C  14,C  12)     48.69  0.002280   -0.20     48.50   
   141. D(H  26,O  15,C  14,C   1)    -76.32 -0.001852    0.24    -76.09   
    ----------------------------------------------------------------------------

         *************************************************************
         *                GEOMETRY OPTIMIZATION CYCLE   2            *
         *************************************************************
---------------------------------
CARTESIAN COORDINATES (ANGSTROEM)
---------------------------------
  O    -2.148869    3.100788   -0.280134
  C    -1.844491    1.970081   -0.003341
  O    -0.959228    1.757498    0.991163
  C    -0.161098    0.577141    1.108657
  C     1.223173    0.841038    0.498078
  O     2.126335   -0.192711    0.882589
  P     3.075804   -0.951345   -0.150380
  O     4.076105   -1.848547    0.453009
  O     3.698220    0.183601   -1.079177
  O     2.087022   -1.716214   -1.149264
  C    -0.866603   -0.682520    0.590637
  O    -1.884847   -1.069960    1.514967
  C    -1.551913   -0.414744   -0.764541
  O    -0.641269   -0.109449   -1.796439
  C    -2.521004    0.760372   -0.640252
  O    -3.684651    0.404745    0.076582
  H    -0.006990    0.463648    2.190628
  H     1.180166    1.003257   -0.582655
  H     1.609712    1.768795    0.937464
  H     4.529364    0.505181   -0.723487
  H     2.600735   -2.362967   -1.642838
  H    -0.154430   -1.513509    0.512780
  H    -1.456992   -1.384462    2.322083
  H    -2.123410   -1.310782   -1.054068
  H     0.041364   -0.796208   -1.828364
  H    -2.844420    1.065188   -1.641162
  H    -3.397886   -0.047813    0.886866

----------------------------
CARTESIAN COORDINATES (A.U.)
----------------------------
  NO LB    ZA    FRAG    MASS        X           Y           Z
   0 O   8.0000    0    15.999   -4.060773    5.859640   -0.529376
   1 C   6.0000    0    12.011   -3.485583    3.722913   -0.006313
   2 O   8.0000    0    15.999   -1.812678    3.321189    1.873026
   3 C   6.0000    0    12.011   -0.304431    1.090639    2.095058
   4 C   6.0000    0    12.011    2.311462    1.589332    0.941230
   5 O   8.0000    0    15.999    4.018192   -0.364172    1.667851
   6 P  15.0000    0    30.974    5.812427   -1.797782   -0.284176
   7 O   8.0000    0    15.999    7.702722   -3.493247    0.856062
   8 O   8.0000    0    15.999    6.988623    0.346955   -2.039350
   9 O   8.0000    0    15.999    3.943900   -3.243174   -2.171794
  10 C   6.0000    0    12.011   -1.637642   -1.289776    1.116143
  11 O   8.0000    0    15.999   -3.561844   -2.021932    2.862873
  12 C   6.0000    0    12.011   -2.932690   -0.783753   -1.444773
  13 O   8.0000    0    15.999   -1.211824   -0.206829   -3.394778
  14 C   6.0000    0    12.011   -4.764006    1.436895   -1.209902
  15 O   8.0000    0    15.999   -6.962981    0.764856    0.144719
  16 H   1.0000    0     1.008   -0.013209    0.876168    4.139687
  17 H   1.0000    0     1.008    2.230190    1.895881   -1.101058
  18 H   1.0000    0     1.008    3.041915    3.342538    1.771551
  19 H   1.0000    0     1.008    8.559257    0.954654   -1.367192
  20 H   1.0000    0     1.008    4.914676   -4.465360   -3.104514
  21 H   1.0000    0     1.008   -0.291830   -2.860117    0.969013
  22 H   1.0000    0     1.008   -2.753315   -2.616253    4.388101
  23 H   1.0000    0     1.008   -4.012663   -2.477019   -1.991901
  24 H   1.0000    0     1.008    0.078168   -1.504615   -3.455107
  25 H   1.0000    0     1.008   -5.375175    2.012913   -3.101347
  26 H   1.0000    0     1.008   -6.421074   -0.090354    1.675934

      -----------------------------------------------------------      
     |                   =====================                   |     
     |                           x T B                           |     
     |                   =====================                   |     
     |                         S. Grimme                         |     
     |          Mulliken Center for Theoretical Chemistry        |     
     |                    University of Bonn                     |     
      -----------------------------------------------------------      

   * xtb version 6.5.1 (579679a) compiled by 'ehlert@majestix' on 2022-07-11

   xtb is free software: you can redistribute it and/or modify it under
   the terms of the GNU Lesser General Public License as published by
   the Free Software Foundation, either version 3 of the License, or
   (at your option) any later version.
   
   xtb is distributed in the hope that it will be useful,
   but WITHOUT ANY WARRANTY; without even the implied warranty of
   MERCHANTABILITY or FITNESS FOR A PARTICULAR PURPOSE.  See the
   GNU Lesser General Public License for more details.
   
   Cite this work as:
   * C. Bannwarth, E. Caldeweyher, S. Ehlert, A. Hansen, P. Pracht,
     J. Seibert, S. Spicher, S. Grimme, WIREs Comput. Mol. Sci., 2020, 11,
     e01493. DOI: 10.1002/wcms.1493
   
   for GFN2-xTB:
   * C. Bannwarth, S. Ehlert and S. Grimme., J. Chem. Theory Comput., 2019,
     15, 1652-1671. DOI: 10.1021/acs.jctc.8b01176
   for GFN1-xTB:
   * S. Grimme, C. Bannwarth, P. Shushkov, J. Chem. Theory Comput., 2017,
     13, 1989-2009. DOI: 10.1021/acs.jctc.7b00118
   for GFN0-xTB:
   * P. Pracht, E. Caldeweyher, S. Ehlert, S. Grimme, ChemRxiv, 2019, preprint.
     DOI: 10.26434/chemrxiv.8326202.v1
   for GFN-FF:
   * S. Spicher and S. Grimme, Angew. Chem. Int. Ed., 2020, 59, 15665-15673.
     DOI: 10.1002/anie.202004239
   
   for ALPB and GBSA implicit solvation:
   * S. Ehlert, M. Stahn, S. Spicher, S. Grimme, J. Chem. Theory Comput.,
     2021, 17, 4250-4261. DOI: 10.1021/acs.jctc.1c00471
   
   for DFT-D4:
   * E. Caldeweyher, C. Bannwarth and S. Grimme, J. Chem. Phys., 2017,
     147, 034112. DOI: 10.1063/1.4993215
   * E. Caldeweyher, S. Ehlert, A. Hansen, H. Neugebauer, S. Spicher,
     C. Bannwarth and S. Grimme, J. Chem. Phys., 2019, 150, 154122.
     DOI: 10.1063/1.5090222
   * E. Caldeweyher, J.-M. Mewes, S. Ehlert and S. Grimme, Phys. Chem. Chem. Phys.
     2020, 22, 8499-8512. DOI: 10.1039/D0CP00502A
   
   for sTDA-xTB:
   * S. Grimme and C. Bannwarth, J. Chem. Phys., 2016, 145, 054103.
     DOI: 10.1063/1.4959605
   
   in the mass-spec context:
   * V. Asgeirsson, C. Bauer and S. Grimme, Chem. Sci., 2017, 8, 4879.
     DOI: 10.1039/c7sc00601b
   * J. Koopman and S. Grimme, ACS Omega 2019, 4, 12, 15120-15133.
     DOI: 10.1021/acsomega.9b02011
   
   for metadynamics refer to:
   * S. Grimme, J. Chem. Theory Comput., 2019, 155, 2847-2862
     DOI: 10.1021/acs.jctc.9b00143
   
   for SPH calculations refer to:
   * S. Spicher and S. Grimme, J. Chem. Theory Comput., 2021, 17, 1701-1714
     DOI: 10.1021/acs.jctc.0c01306
   
   with help from (in alphabetical order)
   P. Atkinson, C. Bannwarth, F. Bohle, G. Brandenburg, E. Caldeweyher
   M. Checinski, S. Dohm, S. Ehlert, S. Ehrlich, I. Gerasimov, C. Hölzer
   A. Katbashev, J. Koopman, C. Lavigne, S. Lehtola, F. März, M. Müller,
   F. Musil, H. Neugebauer, J. Pisarek, C. Plett, P. Pracht, F. Pultar,
   J. Seibert, P. Shushkov, S. Spicher, M. Stahn, M. Steiner, T. Strunk,
   J. Stückrath, T. Rose, and J. Unsleber
   
 * started run on 2023/12/04 at 14:37:23.114     

           -------------------------------------------------
          |                Calculation Setup                |
           -------------------------------------------------

          program call               : otool_xtb /tmp/C01236_XTB.xyz --grad -c 0 -u 0 -P 1 --namespace /tmp/C01236 --input /tmp/C01236_XTB.input.tmp --acc 1.000000
          calculation namespace      : /tmp/C01236
          coordinate file            : /tmp/C01236_XTB.xyz
          omp threads                :                     1

   ID    Z sym.   atoms
    1    8 O      1, 3, 6, 8-10, 12, 14, 16
    2    6 C      2, 4, 5, 11, 13, 15
    3   15 P      7
    4    1 H      17-27

           -------------------------------------------------
          |                 G F N 2 - x T B                 |
           -------------------------------------------------

        Reference                      10.1021/acs.jctc.8b01176
      * Hamiltonian:
        H0-scaling (s, p, d)           1.850000    2.230000    2.230000
        zeta-weighting                 0.500000
      * Dispersion:
        s8                             2.700000
        a1                             0.520000
        a2                             5.000000
        s9                             5.000000
      * Repulsion:
        kExp                           1.500000    1.000000
        rExp                           1.000000
      * Coulomb:
        alpha                          2.000000
        third order                    shell-resolved
        anisotropic                    true
        a3                             3.000000
        a5                             4.000000
        cn-shift                       1.200000
        cn-exp                         4.000000
        max-rad                        5.000000

q/qsh data taken from xtbrestart
CAMM data taken from xtbrestart

          ...................................................
          :                      SETUP                      :
          :.................................................:
          :  # basis functions                  81          :
          :  # atomic orbitals                  80          :
          :  # shells                           44          :
          :  # electrons                        94          :
          :  max. iterations                   250          :
          :  Hamiltonian                  GFN2-xTB          :
          :  restarted?                       true          :
          :  GBSA solvation                  false          :
          :  PC potential                    false          :
          :  electronic temp.          300.0000000     K    :
          :  accuracy                    1.0000000          :
          :  -> integral cutoff          0.2500000E+02      :
          :  -> integral neglect         0.1000000E-07      :
          :  -> SCF convergence          0.1000000E-05 Eh   :
          :  -> wf. convergence          0.1000000E-03 e    :
          :  Broyden damping             0.4000000          :
          ...................................................

 iter      E             dE          RMSdq      gap      omega  full diag
   1    -58.0989906 -0.580990E+02  0.739E-01    4.10       0.0  T
   2    -58.0992020 -0.211359E-03  0.436E-01    4.07       1.0  T
   3    -58.0991976  0.435293E-05  0.566E-02    4.09       1.0  T
   4    -58.0992273 -0.297240E-04  0.205E-02    4.07       1.0  T
   5    -58.0992325 -0.521171E-05  0.848E-03    4.08       2.3  T
   6    -58.0992328 -0.235021E-06  0.369E-03    4.08       5.2  T
   7    -58.0992328 -0.226887E-07  0.135E-03    4.08      14.3  T
   8    -58.0992328 -0.423695E-08  0.360E-04    4.08      53.5  T
   9    -58.0992328 -0.373227E-09  0.136E-04    4.08     141.6  T

   *** convergence criteria satisfied after 9 iterations ***

         #    Occupation            Energy/Eh            Energy/eV
      -------------------------------------------------------------
         1        2.0000           -0.7723805             -21.0175
       ...           ...                  ...                  ...
        41        2.0000           -0.4656070             -12.6698
        42        2.0000           -0.4642855             -12.6339
        43        2.0000           -0.4588223             -12.4852
        44        2.0000           -0.4585750             -12.4785
        45        2.0000           -0.4521730             -12.3043
        46        2.0000           -0.4432671             -12.0619
        47        2.0000           -0.4066940             -11.0667 (HOMO)
        48                         -0.2567805              -6.9874 (LUMO)
        49                         -0.1188459              -3.2340
        50                         -0.0675415              -1.8379
        51                         -0.0565712              -1.5394
        52                         -0.0491822              -1.3383
       ...                                ...                  ...
        80                          1.2208294              33.2205
      -------------------------------------------------------------
                  HL-Gap            0.1499135 Eh            4.0794 eV
             Fermi-level           -0.3317373 Eh           -9.0270 eV

 SCC (total)                   0 d,  0 h,  0 min,  0.032 sec
 SCC setup                      ...        0 min,  0.000 sec (  0.591%)
 Dispersion                     ...        0 min,  0.000 sec (  0.631%)
 classical contributions        ...        0 min,  0.000 sec (  0.136%)
 integral evaluation            ...        0 min,  0.005 sec ( 16.867%)
 iterations                     ...        0 min,  0.011 sec ( 32.883%)
 molecular gradient             ...        0 min,  0.016 sec ( 48.391%)
 printout                       ...        0 min,  0.000 sec (  0.446%)

         :::::::::::::::::::::::::::::::::::::::::::::::::::::
         ::                     SUMMARY                     ::
         :::::::::::::::::::::::::::::::::::::::::::::::::::::
         :: total energy             -57.717892731159 Eh    ::
         :: gradient norm              0.048112092356 Eh/a0 ::
         :: HOMO-LUMO gap              4.079353753852 eV    ::
         ::.................................................::
         :: SCC energy               -58.099232796977 Eh    ::
         :: -> isotropic ES            0.216553566189 Eh    ::
         :: -> anisotropic ES         -0.003902719376 Eh    ::
         :: -> anisotropic XC         -0.006467975621 Eh    ::
         :: -> dispersion             -0.026532386843 Eh    ::
         :: repulsion energy           0.381062643213 Eh    ::
         :: add. restraining           0.000000000000 Eh    ::
         :: total charge              -0.000000000000 e     ::
         :::::::::::::::::::::::::::::::::::::::::::::::::::::


Property printout bound to 'properties.out'

           -------------------------------------------------
          | TOTAL ENERGY              -57.717892731159 Eh   |
          | GRADIENT NORM               0.048112092356 Eh/α |
          | HOMO-LUMO GAP               4.079353753852 eV   |
           -------------------------------------------------

------------------------------------------------------------------------
 * finished run on 2023/12/04 at 14:37:23.158     
------------------------------------------------------------------------
 total:
 * wall-time:     0 d,  0 h,  0 min,  0.044 sec
 *  cpu-time:     0 d,  0 h,  0 min,  0.044 sec
 * ratio c/w:     0.991 speedup
 SCF:
 * wall-time:     0 d,  0 h,  0 min,  0.033 sec
 *  cpu-time:     0 d,  0 h,  0 min,  0.032 sec
 * ratio c/w:     0.981 speedup


-------------------------   --------------------
FINAL SINGLE POINT ENERGY       -57.717892731160
-------------------------   --------------------

------------------------------------------------------------------------------
                         ORCA GEOMETRY RELAXATION STEP
------------------------------------------------------------------------------

Reading the OPT-File                    .... done
Getting information on internals        .... done
Copying old internal coords+grads       .... done
Making the new internal coordinates     .... (new redundants).... done
Validating the new internal coordinates .... (new redundants).... done
Calculating the B-matrix                .... done
Calculating the G,G- and P matrices     .... done
Transforming gradient to internals      .... done
Projecting the internal gradient        .... done
Number of atoms                         ....  27
Number of internal coordinates          .... 141
Current Energy                          ....   -57.717892731 Eh
Current gradient norm                   ....     0.048112092 Eh/bohr
Maximum allowed component of the step   ....  0.300
Current trust radius                    ....  0.300
Updating the Hessian (BFGS)             .... done
Forming the augmented Hessian           .... done
Diagonalizing the augmented Hessian     .... done
Last element of RFO vector              ....  0.962189831
Lowest eigenvalues of augmented Hessian:
 -0.007786628  0.011950493  0.012920739  0.013476365  0.013956152
Length of the computed step             ....  0.283083174
The final length of the internal step   ....  0.283083174
Converting the step to cartesian space:
 Initial RMS(Int)=    0.0238399039
Transforming coordinates:
 Iter   0:  RMS(Cart)=    0.1414636259 RMS(Int)=    0.0236972238
 Iter   1:  RMS(Cart)=    0.0052350379 RMS(Int)=    0.0021521759
 Iter   2:  RMS(Cart)=    0.0003993124 RMS(Int)=    0.0001060526
 Iter   3:  RMS(Cart)=    0.0000324494 RMS(Int)=    0.0000159089
 Iter   4:  RMS(Cart)=    0.0000027279 RMS(Int)=    0.0000009775
 Iter   5:  RMS(Cart)=    0.0000002347 RMS(Int)=    0.0000001301
 Iter   6:  RMS(Cart)=    0.0000000205 RMS(Int)=    0.0000000094
done
Storing new coordinates                 .... done

                                .--------------------.
          ----------------------|Geometry convergence|-------------------------
          Item                value                   Tolerance       Converged
          ---------------------------------------------------------------------
          Energy change      -0.0059872950            0.0000050000      NO
          RMS gradient        0.0037701026            0.0001000000      NO
          MAX gradient        0.0204300969            0.0003000000      NO
          RMS step            0.0238399039            0.0020000000      NO
          MAX step            0.0790863188            0.0040000000      NO
          ........................................................
          Max(Bonds)      0.0232      Max(Angles)    1.99
          Max(Dihed)        4.53      Max(Improp)    0.00
          ---------------------------------------------------------------------

The optimization has not yet converged - more geometry cycles are needed


    ---------------------------------------------------------------------------
                         Redundant Internal Coordinates
                            (Angstroem and degrees)

        Definition                    Value    dE/dq     Step     New-Value
    ----------------------------------------------------------------------------
     1. B(C   1,O   0)                1.2032  0.012122 -0.0232    1.1801   
     2. B(O   2,C   1)                1.3483 -0.000362 -0.0053    1.3430   
     3. B(C   3,O   2)                1.4297  0.007031 -0.0192    1.4105   
     4. B(C   4,C   3)                1.5358  0.004058 -0.0041    1.5317   
     5. B(O   5,C   4)                1.4255  0.007720 -0.0031    1.4225   
     6. B(P   6,O   5)                1.5950  0.008694 -0.0064    1.5886   
     7. B(O   7,P   6)                1.4730  0.020430 -0.0171    1.4559   
     8. B(O   8,P   6)                1.5932 -0.003853  0.0033    1.5964   
     9. B(O   9,P   6)                1.6002 -0.000133 -0.0012    1.5990   
    10. B(C  10,C   3)                1.5339  0.001609 -0.0009    1.5330   
    11. B(O  11,C  10)                1.4287  0.005621 -0.0135    1.4152   
    12. B(C  12,C  10)                1.5420  0.004572  0.0008    1.5429   
    13. B(O  13,C  12)                1.4097  0.002077 -0.0117    1.3980   
    14. B(C  14,C  12)                1.5282 -0.003322  0.0059    1.5341   
    15. B(C  14,C   1)                1.5254 -0.004402  0.0044    1.5297   
    16. B(O  15,C  14)                1.4122  0.006543 -0.0190    1.3932   
    17. B(H  16,C   3)                1.0988 -0.000828  0.0019    1.1007   
    18. B(H  17,C   4)                1.0937  0.000945 -0.0010    1.0927   
    19. B(H  18,C   4)                1.0969 -0.000263  0.0008    1.0977   
    20. B(H  19,O   8)                0.9595  0.003563 -0.0145    0.9451   
    21. B(H  20,O   9)                0.9622  0.005336 -0.0166    0.9456   
    22. B(H  21,C  10)                1.0972 -0.000992  0.0031    1.1003   
    23. B(H  22,O  11)                0.9661  0.002199 -0.0091    0.9570   
    24. B(H  23,C  12)                1.1015 -0.000731  0.0039    1.1054   
    25. B(H  24,O  13)                0.9688  0.001486 -0.0099    0.9589   
    26. B(H  25,C  14)                1.0951 -0.000014 -0.0009    1.0943   
    27. B(H  26,O  15)                0.9714  0.001740 -0.0079    0.9635   
    28. A(O   0,C   1,C  14)          122.48 -0.001222    0.25    122.73   
    29. A(O   2,C   1,C  14)          118.30 -0.001489    0.67    118.98   
    30. A(O   0,C   1,O   2)          118.94  0.002544   -0.83    118.11   
    31. A(C   1,O   2,C   3)          123.87  0.003203   -0.06    123.81   
    32. A(C  10,C   3,H  16)          108.19 -0.000418    1.21    109.40   
    33. A(C   4,C   3,C  10)          114.92  0.008196   -1.86    113.06   
    34. A(O   2,C   3,C   4)          109.19  0.000661   -0.86    108.33   
    35. A(O   2,C   3,C  10)          113.17 -0.005476    0.89    114.06   
    36. A(O   2,C   3,H  16)          104.15  0.001039    0.21    104.36   
    37. A(C   4,C   3,H  16)          106.43 -0.004734    0.64    107.07   
    38. A(C   3,C   4,H  17)          112.51  0.002039   -1.05    111.46   
    39. A(O   5,C   4,H  18)          106.38 -0.005389    1.15    107.53   
    40. A(H  17,C   4,H  18)          106.51 -0.002117    1.99    108.50   
    41. A(C   3,C   4,O   5)          109.83  0.005131   -1.35    108.48   
    42. A(C   3,C   4,H  18)          107.68 -0.001694    0.10    107.78   
    43. A(O   5,C   4,H  17)          113.52  0.001088   -0.61    112.91   
    44. A(C   4,O   5,P   6)          123.19  0.013045    0.50    123.69   
    45. A(O   7,P   6,O   9)          112.59 -0.008502    1.29    113.89   
    46. A(O   5,P   6,O   8)          105.74 -0.002774    0.24    105.98   
    47. A(O   5,P   6,O   7)          115.38  0.003431   -1.11    114.27   
    48. A(O   8,P   6,O   9)          102.59  0.003018   -0.46    102.13   
    49. A(O   7,P   6,O   8)          114.04 -0.002676    1.06    115.10   
    50. A(O   5,P   6,O   9)          105.29  0.008430   -1.13    104.16   
    51. A(P   6,O   8,H  19)          111.16  0.001989   -0.47    110.70   
    52. A(P   6,O   9,H  20)          108.16  0.001416   -0.38    107.78   
    53. A(C   3,C  10,C  12)          111.01  0.000760   -0.45    110.57   
    54. A(C   3,C  10,O  11)          109.39 -0.001047    1.42    110.81   
    55. A(C  12,C  10,H  21)          110.95  0.001874   -0.71    110.25   
    56. A(O  11,C  10,H  21)          107.65 -0.001606    1.29    108.93   
    57. A(C   3,C  10,H  21)          110.33  0.000671   -1.48    108.84   
    58. A(O  11,C  10,C  12)          107.39 -0.000816    0.07    107.46   
    59. A(C  10,O  11,H  22)          108.25 -0.003555    1.02    109.27   
    60. A(O  13,C  12,C  14)          107.62 -0.001021   -1.25    106.36   
    61. A(C  14,C  12,H  23)          108.53 -0.000645    0.25    108.78   
    62. A(O  13,C  12,H  23)          108.60 -0.002503    1.91    110.51   
    63. A(C  10,C  12,C  14)          110.11  0.000235    0.03    110.15   
    64. A(C  10,C  12,H  23)          108.68  0.000385    0.04    108.72   
    65. A(C  10,C  12,O  13)          113.19  0.003361   -0.90    112.30   
    66. A(C  12,O  13,H  24)          109.01 -0.001313    0.34    109.35   
    67. A(C  12,C  14,O  15)          111.73 -0.002430    0.98    112.71   
    68. A(C   1,C  14,O  15)          110.68  0.000713   -1.00    109.69   
    69. A(O  15,C  14,H  25)          106.90  0.001180   -0.77    106.13   
    70. A(C  12,C  14,H  25)          109.08 -0.000733    0.32    109.40   
    71. A(C   1,C  14,C  12)          111.26  0.001753    0.05    111.31   
    72. A(C   1,C  14,H  25)          106.97 -0.000451    0.38    107.35   
    73. A(C  14,O  15,H  26)          107.31 -0.003356    0.83    108.14   
    74. D(C   3,O   2,C   1,C  14)     29.37  0.002930   -1.87     27.50   
    75. D(C   3,O   2,C   1,O   0)   -156.48  0.001074   -0.85   -157.33   
    76. D(C   4,C   3,O   2,C   1)     96.47  0.005223   -2.17     94.29   
    77. D(H  16,C   3,O   2,C   1)   -150.17  0.000609   -1.71   -151.88   
    78. D(C  10,C   3,O   2,C   1)    -32.90 -0.002018    0.32    -32.58   
    79. D(O   5,C   4,C   3,C  10)    -65.34 -0.005102    1.26    -64.08   
    80. D(H  18,C   4,C   3,O   2)     50.82 -0.000204    1.53     52.35   
    81. D(H  18,C   4,C   3,H  16)    -61.05  0.000630    1.37    -59.68   
    82. D(H  17,C   4,C   3,H  16)   -178.12  0.003122   -0.51   -178.63   
    83. D(H  17,C   4,C   3,C  10)     62.15  0.002020   -1.34     60.81   
    84. D(O   5,C   4,C   3,H  16)     54.40 -0.004000    2.08     56.48   
    85. D(O   5,C   4,C   3,O   2)    166.27 -0.004834    2.24    168.50   
    86. D(H  17,C   4,C   3,O   2)    -66.25  0.002288   -0.36    -66.60   
    87. D(H  18,C   4,C   3,C  10)    179.22 -0.000472    0.54    179.76   
    88. D(P   6,O   5,C   4,C   3)    131.98  0.005657   -4.53    127.45   
    89. D(P   6,O   5,C   4,H  18)   -111.75  0.003309   -4.45   -116.20   
    90. D(P   6,O   5,C   4,H  17)      5.06 -0.002106   -1.69      3.36   
    91. D(O   9,P   6,O   5,C   4)    -63.70 -0.003922    2.37    -61.34   
    92. D(O   8,P   6,O   5,C   4)     44.47  0.001620    1.52     45.99   
    93. D(O   7,P   6,O   5,C   4)    171.50 -0.001700    2.32    173.83   
    94. D(H  19,O   8,P   6,O   7)    -36.68 -0.004081    2.83    -33.84   
    95. D(H  19,O   8,P   6,O   5)     91.16 -0.003672    2.32     93.48   
    96. D(H  19,O   8,P   6,O   9)   -158.73  0.005753    1.00   -157.74   
    97. D(H  20,O   9,P   6,O   8)     84.01 -0.002653    1.74     85.75   
    98. D(H  20,O   9,P   6,O   7)    -39.02  0.003212    0.07    -38.95   
    99. D(H  20,O   9,P   6,O   5)   -165.54 -0.001678    1.45   -164.09   
   100. D(O  11,C  10,C   3,H  16)     41.73 -0.001727    1.40     43.13   
   101. D(O  11,C  10,C   3,C   4)    160.48 -0.002873    1.92    162.40   
   102. D(O  11,C  10,C   3,O   2)    -73.14  0.000333   -0.08    -73.22   
   103. D(C  12,C  10,C   3,C   4)    -81.18 -0.004072    2.62    -78.56   
   104. D(C  12,C  10,C   3,O   2)     45.19 -0.000866    0.62     45.82   
   105. D(H  21,C  10,C   3,H  16)    -76.51  0.000474   -0.17    -76.68   
   106. D(H  21,C  10,C   3,C   4)     42.24 -0.000673    0.35     42.60   
   107. D(H  21,C  10,C   3,O   2)    168.62  0.002533   -1.65    166.97   
   108. D(C  12,C  10,C   3,H  16)    160.07 -0.002925    2.10    162.17   
   109. D(H  22,O  11,C  10,H  21)     50.99 -0.000813    0.69     51.68   
   110. D(H  22,O  11,C  10,C  12)    170.52  0.000088    0.59    171.12   
   111. D(H  22,O  11,C  10,C   3)    -68.90 -0.000080    0.92    -67.98   
   112. D(H  23,C  12,C  10,O  11)    -55.19 -0.001516    1.57    -53.62   
   113. D(H  23,C  12,C  10,C   3)   -174.73 -0.000177    0.06   -174.67   
   114. D(C  14,C  12,C  10,H  21)   -179.03 -0.003316    3.11   -175.92   
   115. D(C  14,C  12,C  10,O  11)     63.57 -0.001930    1.92     65.49   
   116. D(C  14,C  12,C  10,C   3)    -55.97 -0.000590    0.40    -55.56   
   117. D(O  13,C  12,C  10,H  21)    -58.54 -0.002180    0.90    -57.64   
   118. D(O  13,C  12,C  10,O  11)   -175.93 -0.000794   -0.30   -176.23   
   119. D(H  23,C  12,C  10,H  21)     62.20 -0.002902    2.77     64.97   
   120. D(O  13,C  12,C  10,C   3)     64.53  0.000546   -1.81     62.72   
   121. D(H  24,O  13,C  12,H  23)    -68.83 -0.001565    0.81    -68.02   
   122. D(H  24,O  13,C  12,C  14)    173.86  0.001079    0.11    173.98   
   123. D(H  24,O  13,C  12,C  10)     51.96 -0.000654    1.61     53.56   
   124. D(O  15,C  14,C  12,H  23)     45.57  0.000361   -0.78     44.79   
   125. D(O  15,C  14,C  12,O  13)    162.92 -0.003489    0.96    163.88   
   126. D(O  15,C  14,C  12,C  10)    -73.28  0.000145   -1.00    -74.28   
   127. D(C   1,C  14,C  12,O  13)    -72.82 -0.003050    0.43    -72.39   
[...]
     68      -0.001569   0.000186  -0.000028   0.000032   0.051576  -0.003367
     69       0.011823   0.001773  -0.004008   0.000819  -0.000372  -0.001111
     70       0.017938   0.003085  -0.005101   0.001646  -0.001226  -0.000143
     71       0.006537   0.001131  -0.001215   0.001628  -0.000645  -0.000076
     72      -0.001060   0.000498   0.003049   0.004258  -0.002293  -0.688958
     73       0.000670  -0.000585  -0.002477  -0.000968   0.002182   0.718529
     74       0.000794   0.000443  -0.000302  -0.000414   0.000738   0.062971
     75       0.002340  -0.003333  -0.245659   0.001927   0.003811  -0.001343
     76      -0.003526   0.004396   0.301577  -0.001898  -0.002356   0.001357
     77       0.010074  -0.012867  -0.917642   0.005806   0.007602  -0.003570
     78      -0.000301   0.000176   0.003000  -0.000193   0.204494  -0.000357
     79       0.001111  -0.000201  -0.002367   0.000102  -0.480457   0.001050
     80      -0.001678  -0.000148   0.011350  -0.000398   0.848517  -0.002621
                 78         79         80    
      0      -0.000029   0.000005  -0.000018
      1       0.000020  -0.000015   0.000034
      2      -0.000029   0.000002  -0.000008
      3       0.000104  -0.000018   0.000063
      4      -0.000035   0.000023  -0.000052
      5       0.000154  -0.000020   0.000050
      6      -0.000004   0.000011  -0.000041
      7       0.000036  -0.000011   0.000018
      8      -0.000028   0.000013  -0.000023
      9      -0.000051  -0.000008   0.000024
     10      -0.000041   0.000004  -0.000018
     11      -0.000356   0.000037  -0.000072
     12      -0.000037  -0.000132   0.000309
     13       0.000032   0.000203  -0.000397
     14      -0.000004  -0.000026   0.000006
     15       0.000033   0.000130  -0.000418
     16      -0.000008  -0.000278   0.000178
     17       0.000013  -0.000227   0.000425
     18      -0.000044   0.000079   0.000292
     19       0.000005   0.000248   0.000077
     20      -0.000004   0.000309  -0.000113
     21       0.000019  -0.000257   0.000177
     22      -0.000012   0.000030  -0.000252
     23       0.000015  -0.000124   0.000229
     24       0.000011   0.012725   0.060039
     25       0.000005   0.001326   0.007434
     26      -0.000011   0.002104   0.009528
     27       0.000024  -0.025336   0.004955
     28       0.000030   0.047978  -0.010458
     29       0.000003   0.027855  -0.006077
     30      -0.000080   0.000026   0.000008
     31      -0.000494  -0.000071   0.000068
     32       0.001786  -0.000002  -0.000003
     33       0.024132  -0.000013  -0.000004
     34      -0.014102   0.000003  -0.000014
     35       0.055087  -0.000010   0.000001
     36      -0.000251   0.000035  -0.000010
     37       0.000200  -0.000028   0.000021
     38       0.000149  -0.000010   0.000024
     39      -0.000177   0.001369  -0.000441
     40       0.000118  -0.001414   0.000445
     41       0.000077  -0.000115   0.000031
     42       0.000060  -0.000010   0.000024
     43       0.000133  -0.000001  -0.000002
     44      -0.000203  -0.000002  -0.000003
     45      -0.000772   0.000010  -0.000016
     46       0.001661  -0.000003   0.000004
     47      -0.002997   0.000005  -0.000013
     48      -0.001197  -0.000060   0.000151
     49      -0.001903   0.000107  -0.000048
     50       0.000948  -0.000230   0.000162
     51       0.000241  -0.000098   0.000098
     52       0.000030  -0.000380   0.000566
     53      -0.000234   0.000658   0.000097
     54       0.000368  -0.000031   0.000344
     55       0.000343  -0.000845   0.000260
     56      -0.000056  -0.000074  -0.000393
     57       0.000055  -0.205407  -0.956211
     58       0.000007  -0.023578  -0.113846
     59       0.000006  -0.035218  -0.157485
     60       0.000128   0.409350  -0.085468
     61      -0.000393  -0.765221   0.165001
     62      -0.000162  -0.444826   0.096619
     63      -0.001889  -0.000797   0.000118
     64       0.000895   0.001208  -0.000606
     65      -0.001554   0.000436  -0.000015
     66      -0.375802   0.000050   0.000059
     67       0.231060  -0.000033   0.000052
     68      -0.893342   0.000276  -0.000096
     69      -0.001168  -0.000181   0.000005
     70      -0.002470   0.000092  -0.000180
     71      -0.001505  -0.000021  -0.000107
     72       0.002773  -0.023573   0.007222
     73      -0.002636   0.023573  -0.007436
     74      -0.000238   0.001709  -0.000528
     75       0.000121  -0.000075   0.000050
     76      -0.000260   0.000048  -0.000016
     77       0.000345  -0.000087  -0.000019
     78       0.011937  -0.000093   0.000158
     79      -0.027964   0.000081  -0.000157
     80       0.050300  -0.000110   0.000259


-----------
IR SPECTRUM
-----------

 Mode   freq       eps      Int      T**2         TX        TY        TZ
       cm**-1   L/(mol*cm) km/mol    a.u.
----------------------------------------------------------------------------
  6:     24.22   0.001151    5.82  0.014826  (-0.098376 -0.057440  0.043003)
  7:     42.76   0.000834    4.21  0.006086  (-0.068291 -0.025245  0.028023)
  8:     59.33   0.000145    0.73  0.000764  ( 0.014612 -0.018257 -0.014739)
  9:     71.19   0.001739    8.79  0.007623  (-0.051321 -0.033298 -0.062294)
 10:     93.37   0.000895    4.52  0.002991  (-0.005569  0.043146  0.033137)
 11:    133.11   0.000233    1.18  0.000545  (-0.007760 -0.014185  0.016846)
 12:    152.47   0.001355    6.85  0.002772  ( 0.052550  0.000014 -0.003286)
 13:    172.78   0.011023   55.71  0.019910  ( 0.015041  0.138903  0.019736)
 14:    202.67   0.000431    2.18  0.000663  ( 0.001496  0.025329 -0.004428)
 15:    215.87   0.000523    2.64  0.000756  ( 0.013276 -0.018062 -0.015909)
 16:    241.25   0.003010   15.21  0.003894  (-0.025418 -0.026914  0.050231)
 17:    245.84   0.015923   80.47  0.020212  (-0.006353 -0.002612 -0.142003)
 18:    267.46   0.001763    8.91  0.002058  (-0.031844 -0.024462  0.021097)
 19:    280.55   0.006567   33.19  0.007305  (-0.024222  0.044931  0.068551)
 20:    305.64   0.004634   23.42  0.004731  (-0.018342  0.063880 -0.017728)
 21:    310.85   0.012611   63.73  0.012660  ( 0.012771 -0.111565  0.007062)
 22:    340.47   0.002880   14.56  0.002640  (-0.016051 -0.041066  0.026381)
 23:    353.41   0.002121   10.72  0.001873  ( 0.028564 -0.001250 -0.032490)
 24:    378.53   0.008488   42.89  0.006997  (-0.038550 -0.011309 -0.073372)
 25:    412.21   0.022651  114.47  0.017148  (-0.117645 -0.047533  0.032381)
 26:    432.54   0.005666   28.63  0.004088  (-0.001175  0.040491 -0.049468)
 27:    435.61   0.007337   37.08  0.005256  ( 0.008580 -0.071095  0.011307)
 28:    440.47   0.025571  129.22  0.018116  ( 0.019980  0.068624  0.114052)
 29:    469.07   0.042354  214.04  0.028177  (-0.011358  0.136272  0.097356)
 30:    475.88   0.016513   83.45  0.010828  ( 0.021645  0.085651  0.054990)
 31:    495.17   0.020571  103.96  0.012964  ( 0.029431  0.101063  0.043403)
 32:    533.69   0.006808   34.41  0.003981  (-0.000387 -0.062009  0.011651)
 33:    567.42   0.001451    7.34  0.000798  ( 0.010063  0.026338 -0.001819)
 34:    589.79   0.010358   52.34  0.005480  ( 0.007002  0.040861  0.061333)
 35:    706.53   0.001030    5.21  0.000455  (-0.007797 -0.017386  0.009591)
 36:    756.81   0.006130   30.98  0.002528  (-0.046847 -0.015214 -0.010082)
 37:    771.89   0.004085   20.64  0.001652  (-0.016662 -0.022001 -0.029831)
 38:    815.82   0.054793  276.90  0.020959  ( 0.067283  0.124063  0.032253)
 39:    822.23   0.035677  180.30  0.013541  ( 0.069729  0.000826 -0.093155)
 40:    846.05   0.008278   41.83  0.003053  ( 0.011655 -0.024465 -0.048155)
 41:    867.28   0.000219    1.11  0.000079  (-0.007633 -0.004044  0.002045)
 42:    881.62   0.058418  295.22  0.020678  ( 0.091362  0.045238 -0.101412)
 43:    928.22   0.029352  148.33  0.009868  (-0.082901  0.013281 -0.053094)
 44:    935.75   0.018905   95.54  0.006305  ( 0.060209  0.029341  0.042645)
 45:   1003.15   0.008716   44.05  0.002711  (-0.043681 -0.025772 -0.011796)
 46:   1056.95   0.004084   20.64  0.001206  ( 0.023806  0.025057 -0.003349)
 47:   1071.38   0.035516  179.49  0.010345  (-0.093250  0.030847  0.026418)
 48:   1083.18   0.018929   95.66  0.005453  ( 0.063084 -0.034286  0.017271)
 49:   1087.72   0.012362   62.47  0.003547  ( 0.032714 -0.048879 -0.009349)
 50:   1105.19   0.043531  219.99  0.012291  (-0.091345 -0.032177  0.053964)
 51:   1115.11   0.005011   25.32  0.001402  (-0.013752 -0.025849 -0.023346)
 52:   1121.69   0.004398   22.22  0.001224  (-0.013031 -0.000809  0.032451)
 53:   1132.13   0.040151  202.91  0.011067  ( 0.057703 -0.051644  0.071209)
 54:   1179.14   0.014450   73.03  0.003824  (-0.049131 -0.004436 -0.037294)
 55:   1190.06   0.002530   12.79  0.000664  (-0.002651 -0.023399 -0.010440)
 56:   1202.95   0.011440   57.81  0.002968  (-0.050119 -0.002526 -0.021199)
 57:   1226.21   0.021766  110.00  0.005539  (-0.073912 -0.006968 -0.005261)
 58:   1258.13   0.021919  110.77  0.005437  (-0.002033  0.025447 -0.069175)
 59:   1271.99   0.009883   49.95  0.002425  (-0.047250  0.012038  0.006874)
 60:   1288.69   0.007936   40.11  0.001922  ( 0.028242  0.006181  0.032954)
 61:   1301.75   0.004282   21.64  0.001026  (-0.013996  0.002909 -0.028671)
 62:   1305.12   0.082856  418.72  0.019811  (-0.094389  0.088841 -0.054858)
 63:   1319.29   0.004028   20.36  0.000953  (-0.008185 -0.029688  0.002088)
 64:   1324.85   0.001585    8.01  0.000373  ( 0.017252  0.004121  0.007665)
 65:   1328.34   0.007085   35.81  0.001665  (-0.040528  0.002483 -0.003976)
 66:   1350.02   0.026764  135.26  0.006187  ( 0.070910  0.025944 -0.022030)
 67:   1361.03   0.002323   11.74  0.000533  ( 0.007661 -0.017345  0.013154)
 68:   1452.48   0.002380   12.03  0.000511  (-0.004712 -0.021328  0.005858)
 69:   1783.92   0.093165  470.82  0.016297  ( 0.057579 -0.110858  0.026321)
 70:   2857.39   0.009670   48.87  0.001056  ( 0.015580  0.024061  0.015311)
 71:   2882.60   0.007581   38.31  0.000821  ( 0.020903 -0.018981 -0.004843)
 72:   2886.58   0.005365   27.11  0.000580  ( 0.003342 -0.017930  0.015727)
 73:   2952.04   0.005779   29.21  0.000611  (-0.001179 -0.024521  0.002868)
 74:   2961.54   0.004468   22.58  0.000471  ( 0.001377 -0.014551  0.016036)
 75:   2984.82   0.003024   15.28  0.000316  ( 0.001262 -0.017559  0.002494)
 76:   3448.50   0.013738   69.43  0.001243  ( 0.011166 -0.014915  0.029935)
 77:   3471.40   0.022882  115.64  0.002057  (-0.039215  0.022377 -0.004299)
 78:   3531.54   0.002688   13.58  0.000238  (-0.012806 -0.003704 -0.007735)
 79:   3613.64   0.013197   66.69  0.001140  ( 0.014757 -0.028944 -0.009173)
 80:   3630.85   0.013482   68.13  0.001159  (-0.033500  0.000244  0.006034)

* The epsilon (eps) is given for a Dirac delta lineshape.
** The dipole moment derivative (T) already includes vibrational overlap.

The first frequency considered to be a vibration is 6
The total number of vibrations considered is 75


--------------------------
THERMOCHEMISTRY AT 298.15K
--------------------------

Temperature         ... 298.15 K
Pressure            ... 1.00 atm
Total Mass          ... 258.12 AMU

Throughout the following assumptions are being made:
  (1) The electronic state is orbitally nondegenerate
  (2) There are no thermally accessible electronically excited states
  (3) Hindered rotations indicated by low frequency modes are not
      treated as such but are treated as vibrations and this may
      cause some error
  (4) All equations used are the standard statistical mechanics
      equations for an ideal gas
  (5) All vibrations are strictly harmonic

freq.      24.22  E(vib)   ...       0.56 
freq.      42.76  E(vib)   ...       0.53 
freq.      59.33  E(vib)   ...       0.51 
freq.      71.19  E(vib)   ...       0.50 
freq.      93.37  E(vib)   ...       0.47 
freq.     133.11  E(vib)   ...       0.42 
freq.     152.47  E(vib)   ...       0.40 
freq.     172.78  E(vib)   ...       0.38 
freq.     202.67  E(vib)   ...       0.35 
freq.     215.87  E(vib)   ...       0.34 
freq.     241.25  E(vib)   ...       0.31 
freq.     245.84  E(vib)   ...       0.31 
freq.     267.46  E(vib)   ...       0.29 
freq.     280.55  E(vib)   ...       0.28 
freq.     305.64  E(vib)   ...       0.26 
freq.     310.85  E(vib)   ...       0.26 
freq.     340.47  E(vib)   ...       0.23 
freq.     353.41  E(vib)   ...       0.22 
freq.     378.53  E(vib)   ...       0.21 
freq.     412.21  E(vib)   ...       0.19 
freq.     432.54  E(vib)   ...       0.18 
freq.     435.61  E(vib)   ...       0.17 
freq.     440.47  E(vib)   ...       0.17 
freq.     469.07  E(vib)   ...       0.16 
freq.     475.88  E(vib)   ...       0.15 
freq.     495.17  E(vib)   ...       0.14 
freq.     533.69  E(vib)   ...       0.13 
freq.     567.42  E(vib)   ...       0.11 
freq.     589.79  E(vib)   ...       0.10 
freq.     706.53  E(vib)   ...       0.07 
freq.     756.81  E(vib)   ...       0.06 
freq.     771.89  E(vib)   ...       0.05 
freq.     815.82  E(vib)   ...       0.05 
freq.     822.23  E(vib)   ...       0.05 
freq.     846.05  E(vib)   ...       0.04 
freq.     867.28  E(vib)   ...       0.04 
freq.     881.62  E(vib)   ...       0.04 
freq.     928.22  E(vib)   ...       0.03 
freq.     935.75  E(vib)   ...       0.03 
freq.    1003.15  E(vib)   ...       0.02 
freq.    1056.95  E(vib)   ...       0.02 
freq.    1071.38  E(vib)   ...       0.02 
freq.    1083.18  E(vib)   ...       0.02 
freq.    1087.72  E(vib)   ...       0.02 
freq.    1105.19  E(vib)   ...       0.02 
freq.    1115.11  E(vib)   ...       0.01 
freq.    1121.69  E(vib)   ...       0.01 
freq.    1132.13  E(vib)   ...       0.01 
freq.    1179.14  E(vib)   ...       0.01 
freq.    1190.06  E(vib)   ...       0.01 
freq.    1202.95  E(vib)   ...       0.01 
freq.    1226.21  E(vib)   ...       0.01 
freq.    1258.13  E(vib)   ...       0.01 
freq.    1271.99  E(vib)   ...       0.01 
freq.    1288.69  E(vib)   ...       0.01 
freq.    1301.75  E(vib)   ...       0.01 
freq.    1305.12  E(vib)   ...       0.01 
freq.    1319.29  E(vib)   ...       0.01 
freq.    1324.85  E(vib)   ...       0.01 
freq.    1328.34  E(vib)   ...       0.01 
freq.    1350.02  E(vib)   ...       0.01 
freq.    1361.03  E(vib)   ...       0.01 
freq.    1452.48  E(vib)   ...       0.00 
freq.    1783.92  E(vib)   ...       0.00 
freq.    2857.39  E(vib)   ...       0.00 
freq.    2882.60  E(vib)   ...       0.00 
freq.    2886.58  E(vib)   ...       0.00 
freq.    2952.04  E(vib)   ...       0.00 
freq.    2961.54  E(vib)   ...       0.00 
freq.    2984.82  E(vib)   ...       0.00 
freq.    3448.50  E(vib)   ...       0.00 
freq.    3471.40  E(vib)   ...       0.00 
freq.    3531.54  E(vib)   ...       0.00 
freq.    3613.64  E(vib)   ...       0.00 
freq.    3630.85  E(vib)   ...       0.00 

------------
INNER ENERGY
------------

The inner energy is: U= E(el) + E(ZPE) + E(vib) + E(rot) + E(trans)
    E(el)   - is the total energy from the electronic structure calculation
              = E(kin-el) + E(nuc-el) + E(el-el) + E(nuc-nuc)
    E(ZPE)  - the the zero temperature vibrational energy from the frequency calculation
    E(vib)  - the the finite temperature correction to E(ZPE) due to population
              of excited vibrational states
    E(rot)  - is the rotational thermal energy
    E(trans)- is the translational thermal energy

Summary of contributions to the inner energy U:
Electronic energy                ...    -57.72333168 Eh
Zero point energy                ...      0.18958268 Eh     118.96 kcal/mol
Thermal vibrational correction   ...      0.01440961 Eh       9.04 kcal/mol
Thermal rotational correction    ...      0.00141627 Eh       0.89 kcal/mol
Thermal translational correction ...      0.00141627 Eh       0.89 kcal/mol
-----------------------------------------------------------------------
Total thermal energy                    -57.51650686 Eh


Summary of corrections to the electronic energy:
(perhaps to be used in another calculation)
Total thermal correction                  0.01724215 Eh      10.82 kcal/mol
Non-thermal (ZPE) correction              0.18958268 Eh     118.96 kcal/mol
-----------------------------------------------------------------------
Total correction                          0.20682483 Eh     129.78 kcal/mol


--------
ENTHALPY
--------

The enthalpy is H = U + kB*T
                kB is Boltzmann's constant
Total free energy                 ...    -57.51650686 Eh 
Thermal Enthalpy correction       ...      0.00094421 Eh       0.59 kcal/mol
-----------------------------------------------------------------------
Total Enthalpy                    ...    -57.51556265 Eh


Note: Only C1 symmetry has been detected, increase convergence thresholds 
      if your molecule has a higher symmetry. Symmetry factor of 1.0 is   
      used for the rotational entropy correction. 
 

Note: Rotational entropy computed according to Herzberg 
Infrared and Raman Spectra, Chapter V,1, Van Nostrand Reinhold, 1945 
Point Group:  C1, Symmetry Number:   1  
Rotational constants in cm-1:     0.033665     0.009329     0.008948 

Vibrational entropy computed according to the QRRHO of S. Grimme
Chem.Eur.J. 2012 18 9955


-------
ENTROPY
-------

The entropy contributions are T*S = T*(S(el)+S(vib)+S(rot)+S(trans))
     S(el)   - electronic entropy
     S(vib)  - vibrational entropy
     S(rot)  - rotational entropy
     S(trans)- translational entropy
The entropies will be listed as multiplied by the temperature to get
units of energy

Electronic entropy                ...      0.00000000 Eh      0.00 kcal/mol
Vibrational entropy               ...      0.02517981 Eh     15.80 kcal/mol
Rotational entropy                ...      0.01554516 Eh      9.75 kcal/mol
Translational entropy             ...      0.02021422 Eh     12.68 kcal/mol
-----------------------------------------------------------------------
Final entropy term                ...      0.06093920 Eh     38.24 kcal/mol

In case the symmetry of your molecule has not been determined correctly
or in case you have a reason to use a different symmetry number we print 
out the resulting rotational entropy values for sn=1,12 :
 --------------------------------------------------------
|  sn= 1 | S(rot)=       0.01554516 Eh      9.75 kcal/mol|
|  sn= 2 | S(rot)=       0.01489071 Eh      9.34 kcal/mol|
|  sn= 3 | S(rot)=       0.01450787 Eh      9.10 kcal/mol|
|  sn= 4 | S(rot)=       0.01423625 Eh      8.93 kcal/mol|
|  sn= 5 | S(rot)=       0.01402556 Eh      8.80 kcal/mol|
|  sn= 6 | S(rot)=       0.01385342 Eh      8.69 kcal/mol|
|  sn= 7 | S(rot)=       0.01370787 Eh      8.60 kcal/mol|
|  sn= 8 | S(rot)=       0.01358179 Eh      8.52 kcal/mol|
|  sn= 9 | S(rot)=       0.01347058 Eh      8.45 kcal/mol|
|  sn=10 | S(rot)=       0.01337111 Eh      8.39 kcal/mol|
|  sn=11 | S(rot)=       0.01328112 Eh      8.33 kcal/mol|
|  sn=12 | S(rot)=       0.01319896 Eh      8.28 kcal/mol|
 --------------------------------------------------------


-------------------
GIBBS FREE ENERGY
-------------------

The Gibbs free energy is G = H - T*S

Total enthalpy                    ...    -57.51556265 Eh 
Total entropy correction          ...     -0.06093920 Eh    -38.24 kcal/mol
-----------------------------------------------------------------------
Final Gibbs free energy         ...    -57.57650185 Eh

For completeness - the Gibbs free energy minus the electronic energy
G-E(el)                           ...      0.14682984 Eh     92.14 kcal/mol



Timings for individual modules:

Sum of individual times         ...      395.621 sec (=   6.594 min)
Geometry relaxation             ...        0.646 sec (=   0.011 min)   0.2 %
Numerical frequency calculation ...      394.336 sec (=   6.572 min)  99.7 %
XTB module                      ...        0.639 sec (=   0.011 min)   0.2 %
                             ****ORCA TERMINATED NORMALLY****
TOTAL RUN TIME: 0 days 0 hours 6 minutes 36 seconds 135 msec
