
                                 *****************
                                 * O   R   C   A *
                                 *****************

                                            #,                                       
                                            ###                                      
                                            ####                                     
                                            #####                                    
                                            ######                                   
                                           ########,                                 
                                     ,,################,,,,,                         
                               ,,#################################,,                 
                          ,,##########################################,,             
                       ,#########################################, ''#####,          
                    ,#############################################,,   '####,        
                  ,##################################################,,,,####,       
                ,###########''''           ''''###############################       
              ,#####''   ,,,,##########,,,,          '''####'''          '####       
            ,##' ,,,,###########################,,,                        '##       
           ' ,,###''''                  '''############,,,                           
         ,,##''                                '''############,,,,        ,,,,,,###''
      ,#''                                            '''#######################'''  
     '                                                          ''''####''''         
             ,#######,   #######,   ,#######,      ##                                
            ,#'     '#,  ##    ##  ,#'     '#,    #''#        ######   ,####,        
            ##       ##  ##   ,#'  ##            #'  '#       #        #'  '#        
            ##       ##  #######   ##           ,######,      #####,   #    #        
            '#,     ,#'  ##    ##  '#,     ,#' ,#      #,         ##   #,  ,#        
             '#######'   ##     ##  '#######'  #'      '#     #####' # '####'        



                  #######################################################
                  #                        -***-                        #
                  #          Department of theory and spectroscopy      #
                  #    Directorship and core code : Frank Neese         #
                  #        Max Planck Institute fuer Kohlenforschung    #
                  #                Kaiser Wilhelm Platz 1               #
                  #                 D-45470 Muelheim/Ruhr               #
                  #                      Germany                        #
                  #                                                     #
                  #                  All rights reserved                #
                  #                        -***-                        #
                  #######################################################


                         Program Version 5.0.3 -  RELEASE  -


 With contributions from (in alphabetic order):
   Daniel Aravena         : Magnetic Suceptibility
   Michael Atanasov       : Ab Initio Ligand Field Theory (pilot matlab implementation)
   Alexander A. Auer      : GIAO ZORA, VPT2 properties, NMR spectrum
   Ute Becker             : Parallelization
   Giovanni Bistoni       : ED, misc. LED, open-shell LED, HFLD
   Martin Brehm           : Molecular dynamics
   Dmytro Bykov           : SCF Hessian
   Vijay G. Chilkuri      : MRCI spin determinant printing, contributions to CSF-ICE
   Dipayan Datta          : RHF DLPNO-CCSD density
   Achintya Kumar Dutta   : EOM-CC, STEOM-CC
   Dmitry Ganyushin       : Spin-Orbit,Spin-Spin,Magnetic field MRCI
   Miquel Garcia          : C-PCM and meta-GGA Hessian, CC/C-PCM, Gaussian charge scheme
   Yang Guo               : DLPNO-NEVPT2, F12-NEVPT2, CIM, IAO-localization
   Andreas Hansen         : Spin unrestricted coupled pair/coupled cluster methods
   Benjamin Helmich-Paris : MC-RPA, TRAH-SCF, COSX integrals
   Lee Huntington         : MR-EOM, pCC
   Robert Izsak           : Overlap fitted RIJCOSX, COSX-SCS-MP3, EOM
   Marcus Kettner         : VPT2
   Christian Kollmar      : KDIIS, OOCD, Brueckner-CCSD(T), CCSD density, CASPT2, CASPT2-K
   Simone Kossmann        : Meta GGA functionals, TD-DFT gradient, OOMP2, MP2 Hessian
   Martin Krupicka        : Initial AUTO-CI
   Lucas Lang             : DCDCAS
   Marvin Lechner         : AUTO-CI (C++ implementation), FIC-MRCC
   Dagmar Lenk            : GEPOL surface, SMD
   Dimitrios Liakos       : Extrapolation schemes; Compound Job, initial MDCI parallelization
   Dimitrios Manganas     : Further ROCIS development; embedding schemes
   Dimitrios Pantazis     : SARC Basis sets
   Anastasios Papadopoulos: AUTO-CI, single reference methods and gradients
   Taras Petrenko         : DFT Hessian,TD-DFT gradient, ASA, ECA, R-Raman, ABS, FL, XAS/XES, NRVS
   Peter Pinski           : DLPNO-MP2, DLPNO-MP2 Gradient
   Christoph Reimann      : Effective Core Potentials
   Marius Retegan         : Local ZFS, SOC
   Christoph Riplinger    : Optimizer, TS searches, QM/MM, DLPNO-CCSD(T), (RO)-DLPNO pert. Triples
   Tobias Risthaus        : Range-separated hybrids, TD-DFT gradient, RPA, STAB
   Michael Roemelt        : Original ROCIS implementation
   Masaaki Saitow         : Open-shell DLPNO-CCSD energy and density
   Barbara Sandhoefer     : DKH picture change effects
   Avijit Sen             : IP-ROCIS
   Kantharuban Sivalingam : CASSCF convergence, NEVPT2, FIC-MRCI
   Bernardo de Souza      : ESD, SOC TD-DFT
   Georgi Stoychev        : AutoAux, RI-MP2 NMR, DLPNO-MP2 response
   Willem Van den Heuvel  : Paramagnetic NMR
   Boris Wezisla          : Elementary symmetry handling
   Frank Wennmohs         : Technical directorship


 We gratefully acknowledge several colleagues who have allowed us to
 interface, adapt or use parts of their codes:
   Stefan Grimme, W. Hujo, H. Kruse, P. Pracht,  : VdW corrections, initial TS optimization,
                  C. Bannwarth, S. Ehlert          DFT functionals, gCP, sTDA/sTD-DF
   Ed Valeev, F. Pavosevic, A. Kumar             : LibInt (2-el integral package), F12 methods
   Garnet Chan, S. Sharma, J. Yang, R. Olivares  : DMRG
   Ulf Ekstrom                                   : XCFun DFT Library
   Mihaly Kallay                                 : mrcc  (arbitrary order and MRCC methods)
   Jiri Pittner, Ondrej Demel                    : Mk-CCSD
   Frank Weinhold                                : gennbo (NPA and NBO analysis)
   Christopher J. Cramer and Donald G. Truhlar   : smd solvation model
   Lars Goerigk                                  : TD-DFT with DH, B97 family of functionals
   V. Asgeirsson, H. Jonsson                     : NEB implementation
   FAccTs GmbH                                   : IRC, NEB, NEB-TS, DLPNO-Multilevel, CI-OPT
                                                   MM, QMMM, 2- and 3-layer-ONIOM, Crystal-QMMM,
                                                   LR-CPCM, SF, NACMEs, symmetry and pop. for TD-DFT,
                                                   nearIR, NL-DFT gradient (VV10), updates on ESD,
                                                   ML-optimized integration grids
   S Lehtola, MJT Oliveira, MAL Marques          : LibXC Library
   Liviu Ungur et al                             : ANISO software


 Your calculation uses the libint2 library for the computation of 2-el integrals
 For citations please refer to: http://libint.valeyev.net

 Your ORCA version has been built with support for libXC version: 5.1.0
 For citations please refer to: https://tddft.org/programs/libxc/

 This ORCA versions uses:
   CBLAS   interface :  Fast vector & matrix operations
   LAPACKE interface :  Fast linear algebra routines
   SCALAPACK package :  Parallel linear algebra routines
   Shared memory     :  Shared parallel matrices
   BLAS/LAPACK       :  OpenBLAS 0.3.15  USE64BITINT DYNAMIC_ARCH NO_AFFINITY Haswell SINGLE_THREADED
        Core in use  :  Haswell
   Copyright (c) 2011-2014, The OpenBLAS Project


Your calculation utilizes the semiempirical GFN2-xTB method
Please cite in your paper:
C. Bannwarth, Ehlert S., S. Grimme,  J. Chem. Theory Comput., 15, (2019), 1652.
   

================================================================================

================================================================================
                                        WARNINGS
                       Please study these warnings very carefully!
================================================================================


WARNING: Geometry Optimization
  ===> : Switching off AutoStart
         For restart on a previous wavefunction, please use MOREAD

WARNING: Found dipole moment calculation with XTB calculation
  ===> : Switching off dipole moment calculation


WARNING: TRAH-SCF for XTB is not implemented!
  ===> : Turning TRAH off!

================================================================================
                                       INPUT FILE
================================================================================
NAME = /tmp/C05382.inp
|  1> ! XTB2 opt numfreq
|  2> * XYZ 0 1
|  3> O -3.0010 1.3845 0.7646
|  4> C -3.2842 0.7283 -0.2447
|  5> C -4.7184 0.6212 -0.7435
|  6> O -5.6486 1.0571 0.2368
|  7> C -2.2156 0.0564 -1.1002
|  8> O -1.9441 0.9155 -2.2099
|  9> C -0.9323 -0.1720 -0.2706
| 10> O -0.3339 1.1150 -0.0188
| 11> C 0.0652 -1.0806 -1.0194
| 12> O -0.5913 -2.3229 -1.3346
| 13> C 1.3437 -1.4356 -0.2339
| 14> O 0.9650 -2.2641 0.8850
| 15> C 2.1666 -0.2489 0.2613
| 16> O 3.3882 -0.7578 0.7873
| 17> P 4.5257 0.2693 1.2384
| 18> O 5.7870 -0.3190 1.7659
| 19> O 3.8429 1.3708 2.1633
| 20> O 4.8296 1.1345 -0.0710
| 21> H -4.9452 -0.4207 -0.9835
| 22> H -4.8321 1.2404 -1.6373
| 23> H -5.2177 1.7857 0.7250
| 24> H -2.6250 -0.8889 -1.4690
| 25> H -1.3028 1.5799 -1.8850
| 26> H -1.1894 -0.6300 0.6926
| 27> H -0.9537 1.5736 0.5926
| 28> H 0.3583 -0.6047 -1.9625
| 29> H -0.4317 -2.9038 -0.5600
| 30> H 1.9714 -2.0796 -0.8628
| 31> H 1.7912 -2.4212 1.3854
| 32> H 1.6596 0.2670 1.0808
| 33> H 2.3775 0.4468 -0.5559
| 34> H 3.3359 2.0208 1.6466
| 35> H 5.7592 0.9829 -0.3347
| 36> *
| 37> 
| 38>                          ****END OF INPUT****
================================================================================

                       *****************************
                       * Geometry Optimization Run *
                       *****************************

Geometry optimization settings:
Update method            Update   .... BFGS
Choice of coordinates    CoordSys .... Z-matrix Internals
Initial Hessian          InHess   .... Almoef's Model

Convergence Tolerances:
Energy Change            TolE     ....  5.0000e-06 Eh
Max. Gradient            TolMAXG  ....  3.0000e-04 Eh/bohr
RMS Gradient             TolRMSG  ....  1.0000e-04 Eh/bohr
Max. Displacement        TolMAXD  ....  4.0000e-03 bohr
RMS Displacement         TolRMSD  ....  2.0000e-03 bohr
Strict Convergence                ....  False
------------------------------------------------------------------------------
                        ORCA OPTIMIZATION COORDINATE SETUP
------------------------------------------------------------------------------

The optimization will be done in new redundant internal coordinates
Making redundant internal coordinates   ...  (new redundants) done
Evaluating the initial hessian          ...  (Almloef) done
Evaluating the coordinates              ...  done
Calculating the B-matrix                .... done
Calculating the G-matrix                .... done
Diagonalizing the G-matrix              .... done
Small eigenvalue found = 2.940e-03
Small eigenvalue found = 6.815e-03
Small eigenvalue found = 1.901e-02
Small eigenvalue found = 2.652e-02
The first mode is                       ....   67
The number of degrees of freedom        ....   93

    -----------------------------------------------------------------
                    Redundant Internal Coordinates


    -----------------------------------------------------------------
         Definition                    Initial Value    Approx d2E/dq
    -----------------------------------------------------------------
      1. B(C   1,O   0)                  1.2367         0.982691   
      2. B(C   2,C   1)                  1.5222         0.384384   
      3. B(O   3,C   2)                  1.4200         0.501286   
      4. B(C   4,C   1)                  1.5249         0.380678   
      5. B(O   5,C   4)                  1.4294         0.484180   
      6. B(C   6,C   4)                  1.5451         0.353447   
      7. B(O   7,C   6)                  1.4415         0.463178   
      8. B(C   8,C   6)                  1.5431         0.355978   
      9. B(O   9,C   8)                  1.4400         0.465666   
     10. B(C  10,C   8)                  1.5419         0.357535   
     11. B(O  11,C  10)                  1.4428         0.460878   
     12. B(C  12,C  10)                  1.5266         0.378208   
     13. B(O  13,C  12)                  1.4241         0.493772   
     14. B(P  14,O  13)                  1.5976         0.877311   
     15. B(O  15,P  14)                  1.4884         1.310491   
     16. B(O  16,P  14)                  1.5922         0.895043   
     17. B(O  17,P  14)                  1.5986         0.874168   
     18. B(H  18,C   2)                  1.0930         0.356186   
     19. B(H  19,C   2)                  1.0933         0.355815   
     20. B(H  20,O   3)                  0.9772         0.488162   
     21. B(H  21,C   4)                  1.0942         0.354622   
     22. B(H  22,O   5)                  0.9789         0.485072   
     23. B(H  23,C   6)                  1.0971         0.350835   
     24. B(H  24,O   7)                  0.9840         0.476058   
     25. B(H  25,C   8)                  1.0963         0.351890   
     26. B(H  26,O   9)                  0.9813         0.480846   
     27. B(H  27,C  10)                  1.0974         0.350459   
     28. B(H  28,O  11)                  0.9786         0.485588   
     29. B(H  29,C  12)                  1.0931         0.356074   
     30. B(H  30,C  12)                  1.0938         0.355171   
     31. B(H  31,O  16)                  0.9729         0.495896   
     32. B(H  32,O  17)                  0.9781         0.486510   
     33. A(O   0,C   1,C   4)          122.0854         0.429127   
     34. A(C   2,C   1,C   4)          116.4498         0.366308   
     35. A(O   0,C   1,C   2)          121.3657         0.429874   
     36. A(C   1,C   2,H  19)          109.0280         0.325202   
     37. A(H  18,C   2,H  19)          109.8044         0.289796   
     38. A(O   3,C   2,H  18)          107.9566         0.337828   
     39. A(C   1,C   2,O   3)          111.6779         0.381703   
     40. A(C   1,C   2,H  18)          109.5438         0.325258   
     41. A(O   3,C   2,H  19)          108.8094         0.337769   
     42. A(C   2,O   3,H  20)          106.5548         0.353114   
     43. A(O   5,C   4,C   6)          110.3605         0.373949   
     44. A(C   1,C   4,C   6)          110.2398         0.361091   
     45. A(C   6,C   4,H  21)          111.3483         0.320582   
     46. A(C   1,C   4,H  21)          107.9128         0.324506   
     47. A(C   1,C   4,O   5)          107.6877         0.378776   
     48. A(O   5,C   4,H  21)          109.1864         0.335634   
     49. A(C   4,O   5,H  22)          105.9434         0.350670   
     50. A(O   7,C   6,C   8)          110.0062         0.371559   
     51. A(C   8,C   6,H  23)          109.3722         0.320394   
     52. A(C   4,C   6,C   8)          111.3084         0.356991   
     53. A(O   7,C   6,H  23)          108.4604         0.332579   
     54. A(C   4,C   6,H  23)          109.7838         0.320020   
     55. A(C   4,C   6,O   7)          107.8548         0.371103   
     56. A(C   6,O   7,H  24)          105.2579         0.346959   
     57. A(O   9,C   8,C  10)          106.9114         0.372182   
     58. A(C   6,C   8,C  10)          115.1086         0.357690   
     59. A(C  10,C   8,H  25)          108.4517         0.320780   
     60. A(C   6,C   8,O   9)          108.6311         0.371902   
     61. A(O   9,C   8,H  25)          107.9440         0.333040   
     62. A(C   6,C   8,H  25)          109.5523         0.320551   
     63. A(C   8,O   9,H  26)          105.2937         0.347858   
     64. A(C   8,C  10,C  12)          115.6715         0.361399   
     65. A(C   8,C  10,O  11)          108.0367         0.371520   
     66. A(C  12,C  10,H  27)          109.4963         0.323531   
     67. A(O  11,C  10,H  27)          104.9263         0.332245   
     68. A(C   8,C  10,H  27)          108.5078         0.320566   
     69. A(O  11,C  10,C  12)          109.6507         0.375137   
     70. A(C  10,O  11,H  28)          105.4932         0.347827   
     71. A(O  13,C  12,H  30)          109.7470         0.336819   
     72. A(C  10,C  12,H  30)          110.8555         0.324241   
     73. A(O  13,C  12,H  29)          106.8358         0.336961   
     74. A(C  10,C  12,H  29)          111.1034         0.324376   
     75. A(H  29,C  12,H  30)          110.4501         0.289699   
     76. A(C  10,C  12,O  13)          107.7232         0.379637   
     77. A(C  12,O  13,P  14)          119.0338         0.467900   
     78. A(O  16,P  14,O  17)          100.5395         0.559643   
     79. A(O  15,P  14,O  17)          110.0676         0.602064   
     80. A(O  13,P  14,O  17)          104.5978         0.557517   
     81. A(O  15,P  14,O  16)          115.5310         0.604811   
     82. A(O  13,P  14,O  16)          107.6655         0.560026   
     83. A(O  13,P  14,O  15)          116.7012         0.602481   
     84. A(P  14,O  16,H  31)          112.1594         0.417376   
     85. A(P  14,O  17,H  32)          108.5194         0.414217   
     86. D(O   3,C   2,C   1,C   4)    169.1502         0.011010   
     87. D(H  19,C   2,C   1,O   0)    105.8756         0.011010   
     88. D(H  18,C   2,C   1,C   4)     49.6026         0.011010   
     89. D(H  18,C   2,C   1,O   0)   -133.9438         0.011010   
     90. D(O   3,C   2,C   1,O   0)    -14.3961         0.011010   
     91. D(H  19,C   2,C   1,C   4)    -70.5780         0.011010   
     92. D(H  20,O   3,C   2,C   1)     34.1823         0.019869   
     93. D(H  20,O   3,C   2,H  18)    154.6627         0.019869   
     94. D(H  20,O   3,C   2,H  19)    -86.2175         0.019869   
     95. D(H  21,C   4,C   1,O   0)    144.4333         0.010811   
     96. D(O   5,C   4,C   1,C   2)     78.6086         0.010811   
     97. D(O   5,C   4,C   1,O   0)    -97.8174         0.010811   
     98. D(C   6,C   4,C   1,C   2)   -160.9399         0.010811   
     99. D(H  21,C   4,C   1,C   2)    -39.1408         0.010811   
    100. D(C   6,C   4,C   1,O   0)     22.6341         0.010811   
    101. D(H  22,O   5,C   4,H  21)   -159.9508         0.018501   
    102. D(H  22,O   5,C   4,C   6)    -37.2488         0.018501   
    103. D(H  22,O   5,C   4,C   1)     83.1267         0.018501   
    104. D(H  23,C   6,C   4,H  21)    -71.6685         0.010050   
    105. D(H  23,C   6,C   4,O   5)    166.9039         0.010050   
    106. D(C   8,C   6,C   4,H  21)     49.5752         0.010050   
    107. D(C   8,C   6,C   4,O   5)    -71.8524         0.010050   
    108. D(C   8,C   6,C   4,C   1)    169.3158         0.010050   
    109. D(H  23,C   6,C   4,C   1)     48.0721         0.010050   
    110. D(O   7,C   6,C   4,H  21)    170.3357         0.010050   
    111. D(O   7,C   6,C   4,O   5)     48.9082         0.010050   
    112. D(O   7,C   6,C   4,C   1)    -69.9236         0.010050   
    113. D(H  24,O   7,C   6,H  23)    -50.5161         0.016904   
    114. D(H  24,O   7,C   6,C   8)   -170.1001         0.016904   
    115. D(H  24,O   7,C   6,C   4)     68.3276         0.016904   
    116. D(O   9,C   8,C   6,C   4)    -56.6951         0.010183   
    117. D(H  25,C   8,C   6,O   7)    -58.4896         0.010183   
    118. D(H  25,C   8,C   6,C   4)     60.9993         0.010183   
    119. D(C  10,C   8,C   6,H  23)    -55.0134         0.010183   
    120. D(C  10,C   8,C   6,O   7)     64.0139         0.010183   
    121. D(C  10,C   8,C   6,C   4)   -176.4973         0.010183   
    122. D(O   9,C   8,C   6,H  23)     64.7887         0.010183   
    123. D(H  25,C   8,C   6,H  23)   -177.5169         0.010183   
    124. D(O   9,C   8,C   6,O   7)   -176.1840         0.010183   
    125. D(H  26,O   9,C   8,H  25)    152.1410         0.017088   
    126. D(H  26,O   9,C   8,C  10)     35.6418         0.017088   
    127. D(H  26,O   9,C   8,C   6)    -89.1466         0.017088   
    128. D(H  27,C  10,C   8,H  25)    -56.8679         0.010266   
    129. D(H  27,C  10,C   8,O   9)     59.2941         0.010266   
    130. D(H  27,C  10,C   8,C   6)   -179.9595         0.010266   
    131. D(C  12,C  10,C   8,H  25)     66.5946         0.010266   
    132. D(C  12,C  10,C   8,O   9)   -177.2435         0.010266   
    133. D(C  12,C  10,C   8,C   6)    -56.4971         0.010266   
    134. D(O  11,C  10,C   8,H  25)   -170.1130         0.010266   
    135. D(O  11,C  10,C   8,O   9)    -53.9510         0.010266   
    136. D(O  11,C  10,C   8,C   6)     66.7953         0.010266   
    137. D(H  28,O  11,C  10,H  27)     67.7297         0.016734   
    138. D(H  28,O  11,C  10,C  12)    -49.7832         0.016734   
    139. D(H  28,O  11,C  10,C   8)   -176.6567         0.016734   
    140. D(H  30,C  12,C  10,O  11)   -174.1915         0.011406   
    141. D(H  30,C  12,C  10,C   8)    -51.7517         0.011406   
    142. D(H  29,C  12,C  10,H  27)   -165.5933         0.011406   
    143. D(H  29,C  12,C  10,O  11)    -50.9755         0.011406   
    144. D(H  29,C  12,C  10,C   8)     71.4643         0.011406   
    145. D(O  13,C  12,C  10,H  27)    -48.8971         0.011406   
    146. D(O  13,C  12,C  10,O  11)     65.7208         0.011406   
    147. D(H  30,C  12,C  10,H  27)     71.1906         0.011406   
    148. D(O  13,C  12,C  10,C   8)   -171.8394         0.011406   
    149. D(P  14,O  13,C  12,H  30)     52.6519         0.019261   
    150. D(P  14,O  13,C  12,H  29)    -67.1149         0.019261   
    151. D(P  14,O  13,C  12,C  10)    173.4376         0.019261   
    152. D(O  17,P  14,O  13,C  12)    -57.4530         0.013311   
    153. D(O  16,P  14,O  13,C  12)     48.8856         0.013311   
    154. D(O  15,P  14,O  13,C  12)   -179.3162         0.013311   
    155. D(H  31,O  16,P  14,O  17)     32.6607         0.013830   
    156. D(H  31,O  16,P  14,O  15)    151.0625         0.013830   
    157. D(H  31,O  16,P  14,O  13)    -76.5048         0.013830   
    158. D(H  32,O  17,P  14,O  16)    131.1423         0.013221   
    159. D(H  32,O  17,P  14,O  15)      8.8189         0.013221   
    160. D(H  32,O  17,P  14,O  13)   -117.3012         0.013221   
    -----------------------------------------------------------------

Number of atoms                         .... 33
Number of degrees of freedom            .... 160

         *************************************************************
         *                GEOMETRY OPTIMIZATION CYCLE   1            *
         *************************************************************
---------------------------------
CARTESIAN COORDINATES (ANGSTROEM)
---------------------------------
  O    -3.001000    1.384500    0.764600
  C    -3.284200    0.728300   -0.244700
  C    -4.718400    0.621200   -0.743500
  O    -5.648600    1.057100    0.236800
  C    -2.215600    0.056400   -1.100200
  O    -1.944100    0.915500   -2.209900
  C    -0.932300   -0.172000   -0.270600
  O    -0.333900    1.115000   -0.018800
  C     0.065200   -1.080600   -1.019400
  O    -0.591300   -2.322900   -1.334600
  C     1.343700   -1.435600   -0.233900
  O     0.965000   -2.264100    0.885000
  C     2.166600   -0.248900    0.261300
  O     3.388200   -0.757800    0.787300
  P     4.525700    0.269300    1.238400
  O     5.787000   -0.319000    1.765900
  O     3.842900    1.370800    2.163300
  O     4.829600    1.134500   -0.071000
  H    -4.945200   -0.420700   -0.983500
  H    -4.832100    1.240400   -1.637300
  H    -5.217700    1.785700    0.725000
  H    -2.625000   -0.888900   -1.469000
  H    -1.302800    1.579900   -1.885000
  H    -1.189400   -0.630000    0.692600
  H    -0.953700    1.573600    0.592600
  H     0.358300   -0.604700   -1.962500
  H    -0.431700   -2.903800   -0.560000
  H     1.971400   -2.079600   -0.862800
  H     1.791200   -2.421200    1.385400
  H     1.659600    0.267000    1.080800
  H     2.377500    0.446800   -0.555900
  H     3.335900    2.020800    1.646600
  H     5.759200    0.982900   -0.334700

----------------------------
CARTESIAN COORDINATES (A.U.)
----------------------------
  NO LB    ZA    FRAG    MASS        X           Y           Z
   0 O   8.0000    0    15.999   -5.671068    2.616326    1.444885
   1 C   6.0000    0    12.011   -6.206239    1.376288   -0.462416
   2 C   6.0000    0    12.011   -8.916484    1.173898   -1.405011
   3 O   8.0000    0    15.999  -10.674307    1.997629    0.447487
   4 C   6.0000    0    12.011   -4.186877    0.106581   -2.079077
   5 O   8.0000    0    15.999   -3.673817    1.730044   -4.176106
   6 C   6.0000    0    12.011   -1.761792   -0.325033   -0.511360
   7 O   8.0000    0    15.999   -0.630980    2.107045   -0.035527
   8 C   6.0000    0    12.011    0.123210   -2.042038   -1.926387
   9 O   8.0000    0    15.999   -1.117395   -4.389645   -2.522028
  10 C   6.0000    0    12.011    2.539225   -2.712891   -0.442007
  11 O   8.0000    0    15.999    1.823586   -4.278529    1.672408
  12 C   6.0000    0    12.011    4.094281   -0.470353    0.493785
  13 O   8.0000    0    15.999    6.402770   -1.432034    1.487781
  14 P  15.0000    0    30.974    8.552334    0.508903    2.340237
  15 O   8.0000    0    15.999   10.935845   -0.602823    3.337067
  16 O   8.0000    0    15.999    7.262029    2.590437    4.088045
  17 O   8.0000    0    15.999    9.126621    2.143894   -0.134171
  18 H   1.0000    0     1.008   -9.345074   -0.795008   -1.858546
  19 H   1.0000    0     1.008   -9.131346    2.344016   -3.094049
  20 H   1.0000    0     1.008   -9.860024    3.374484    1.370051
  21 H   1.0000    0     1.008   -4.960531   -1.679778   -2.776008
  22 H   1.0000    0     1.008   -2.461935    2.985578   -3.562134
  23 H   1.0000    0     1.008   -2.247640   -1.190527    1.308824
  24 H   1.0000    0     1.008   -1.802232    2.973673    1.119852
  25 H   1.0000    0     1.008    0.677089   -1.142717   -3.708588
  26 H   1.0000    0     1.008   -0.815795   -5.487387   -1.058247
  27 H   1.0000    0     1.008    3.725406   -3.929874   -1.630456
  28 H   1.0000    0     1.008    3.384877   -4.575405    2.618027
  29 H   1.0000    0     1.008    3.136189    0.504557    2.042416
  30 H   1.0000    0     1.008    4.492824    0.844330   -1.050499
  31 H   1.0000    0     1.008    6.303937    3.818759    3.111623
  32 H   1.0000    0     1.008   10.883311    1.857412   -0.632491

      -----------------------------------------------------------      
     |                   =====================                   |     
     |                           x T B                           |     
     |                   =====================                   |     
     |                         S. Grimme                         |     
     |          Mulliken Center for Theoretical Chemistry        |     
     |                    University of Bonn                     |     
      -----------------------------------------------------------      

   * xtb version 6.5.1 (579679a) compiled by 'ehlert@majestix' on 2022-07-11

   xtb is free software: you can redistribute it and/or modify it under
   the terms of the GNU Lesser General Public License as published by
   the Free Software Foundation, either version 3 of the License, or
   (at your option) any later version.
   
   xtb is distributed in the hope that it will be useful,
   but WITHOUT ANY WARRANTY; without even the implied warranty of
   MERCHANTABILITY or FITNESS FOR A PARTICULAR PURPOSE.  See the
   GNU Lesser General Public License for more details.
   
   Cite this work as:
   * C. Bannwarth, E. Caldeweyher, S. Ehlert, A. Hansen, P. Pracht,
     J. Seibert, S. Spicher, S. Grimme, WIREs Comput. Mol. Sci., 2020, 11,
     e01493. DOI: 10.1002/wcms.1493
   
   for GFN2-xTB:
   * C. Bannwarth, S. Ehlert and S. Grimme., J. Chem. Theory Comput., 2019,
     15, 1652-1671. DOI: 10.1021/acs.jctc.8b01176
   for GFN1-xTB:
   * S. Grimme, C. Bannwarth, P. Shushkov, J. Chem. Theory Comput., 2017,
     13, 1989-2009. DOI: 10.1021/acs.jctc.7b00118
   for GFN0-xTB:
   * P. Pracht, E. Caldeweyher, S. Ehlert, S. Grimme, ChemRxiv, 2019, preprint.
     DOI: 10.26434/chemrxiv.8326202.v1
   for GFN-FF:
   * S. Spicher and S. Grimme, Angew. Chem. Int. Ed., 2020, 59, 15665-15673.
     DOI: 10.1002/anie.202004239
   
   for ALPB and GBSA implicit solvation:
   * S. Ehlert, M. Stahn, S. Spicher, S. Grimme, J. Chem. Theory Comput.,
     2021, 17, 4250-4261. DOI: 10.1021/acs.jctc.1c00471
   
   for DFT-D4:
   * E. Caldeweyher, C. Bannwarth and S. Grimme, J. Chem. Phys., 2017,
     147, 034112. DOI: 10.1063/1.4993215
   * E. Caldeweyher, S. Ehlert, A. Hansen, H. Neugebauer, S. Spicher,
     C. Bannwarth and S. Grimme, J. Chem. Phys., 2019, 150, 154122.
     DOI: 10.1063/1.5090222
   * E. Caldeweyher, J.-M. Mewes, S. Ehlert and S. Grimme, Phys. Chem. Chem. Phys.
     2020, 22, 8499-8512. DOI: 10.1039/D0CP00502A
   
   for sTDA-xTB:
   * S. Grimme and C. Bannwarth, J. Chem. Phys., 2016, 145, 054103.
     DOI: 10.1063/1.4959605
   
   in the mass-spec context:
   * V. Asgeirsson, C. Bauer and S. Grimme, Chem. Sci., 2017, 8, 4879.
     DOI: 10.1039/c7sc00601b
   * J. Koopman and S. Grimme, ACS Omega 2019, 4, 12, 15120-15133.
     DOI: 10.1021/acsomega.9b02011
   
   for metadynamics refer to:
   * S. Grimme, J. Chem. Theory Comput., 2019, 155, 2847-2862
     DOI: 10.1021/acs.jctc.9b00143
   
   for SPH calculations refer to:
   * S. Spicher and S. Grimme, J. Chem. Theory Comput., 2021, 17, 1701-1714
     DOI: 10.1021/acs.jctc.0c01306
   
   with help from (in alphabetical order)
   P. Atkinson, C. Bannwarth, F. Bohle, G. Brandenburg, E. Caldeweyher
   M. Checinski, S. Dohm, S. Ehlert, S. Ehrlich, I. Gerasimov, C. Hölzer
   A. Katbashev, J. Koopman, C. Lavigne, S. Lehtola, F. März, M. Müller,
   F. Musil, H. Neugebauer, J. Pisarek, C. Plett, P. Pracht, F. Pultar,
   J. Seibert, P. Shushkov, S. Spicher, M. Stahn, M. Steiner, T. Strunk,
   J. Stückrath, T. Rose, and J. Unsleber
   
 * started run on 2023/12/04 at 14:43:59.124     

           -------------------------------------------------
          |                Calculation Setup                |
           -------------------------------------------------

          program call               : otool_xtb /tmp/C05382_XTB.xyz --grad -c 0 -u 0 -P 1 --namespace /tmp/C05382 --input /tmp/C05382_XTB.input.tmp --acc 1.000000
          calculation namespace      : /tmp/C05382
          coordinate file            : /tmp/C05382_XTB.xyz
          omp threads                :                     1

   ID    Z sym.   atoms
    1    8 O      1, 4, 6, 8, 10, 12, 14, 16-18
    2    6 C      2, 3, 5, 7, 9, 11, 13
    3   15 P      15
    4    1 H      19-33

           -------------------------------------------------
          |                 G F N 2 - x T B                 |
           -------------------------------------------------

        Reference                      10.1021/acs.jctc.8b01176
      * Hamiltonian:
        H0-scaling (s, p, d)           1.850000    2.230000    2.230000
        zeta-weighting                 0.500000
      * Dispersion:
        s8                             2.700000
        a1                             0.520000
        a2                             5.000000
        s9                             5.000000
      * Repulsion:
        kExp                           1.500000    1.000000
        rExp                           1.000000
      * Coulomb:
        alpha                          2.000000
        third order                    shell-resolved
        anisotropic                    true
        a3                             3.000000
        a5                             4.000000
        cn-shift                       1.200000
        cn-exp                         4.000000
        max-rad                        5.000000


          ...................................................
          :                      SETUP                      :
          :.................................................:
          :  # basis functions                  93          :
          :  # atomic orbitals                  92          :
          :  # shells                           52          :
          :  # electrons                       108          :
          :  max. iterations                   250          :
          :  Hamiltonian                  GFN2-xTB          :
          :  restarted?                      false          :
          :  GBSA solvation                  false          :
          :  PC potential                    false          :
          :  electronic temp.          300.0000000     K    :
          :  accuracy                    1.0000000          :
          :  -> integral cutoff          0.2500000E+02      :
          :  -> integral neglect         0.1000000E-07      :
          :  -> SCF convergence          0.1000000E-05 Eh   :
          :  -> wf. convergence          0.1000000E-03 e    :
          :  Broyden damping             0.4000000          :
          ...................................................

 iter      E             dE          RMSdq      gap      omega  full diag
   1    -66.2489898 -0.662490E+02  0.593E+00    3.77       0.0  T
   2    -66.3319021 -0.829123E-01  0.322E+00    2.92       1.0  T
   3    -66.3350194 -0.311728E-02  0.132E+00    3.28       1.0  T
   4    -66.3522675 -0.172481E-01  0.550E-01    2.89       1.0  T
   5    -66.3532995 -0.103201E-02  0.192E-01    3.05       1.0  T
   6    -66.3535288 -0.229312E-03  0.703E-02    3.00       1.0  T
   7    -66.3535411 -0.123082E-04  0.261E-02    3.00       1.0  T
   8    -66.3535433 -0.221974E-05  0.920E-03    3.00       1.9  T
   9    -66.3535436 -0.294496E-06  0.355E-03    3.00       4.9  T
  10    -66.3535437 -0.844874E-07  0.129E-03    3.00      13.5  T
  11    -66.3535437 -0.553088E-08  0.501E-04    3.00      34.7  T
  12    -66.3535437 -0.797911E-09  0.225E-04    3.00      77.4  T

   *** convergence criteria satisfied after 12 iterations ***

         #    Occupation            Energy/Eh            Energy/eV
      -------------------------------------------------------------
         1        2.0000           -0.7580966             -20.6289
       ...           ...                  ...                  ...
        48        2.0000           -0.4500076             -12.2453
        49        2.0000           -0.4477814             -12.1848
        50        2.0000           -0.4433565             -12.0643
        51        2.0000           -0.4426592             -12.0454
        52        2.0000           -0.4399996             -11.9730
        53        2.0000           -0.4377767             -11.9125
        54        2.0000           -0.4159392             -11.3183 (HOMO)
        55                         -0.3058610              -8.3229 (LUMO)
        56                         -0.1143860              -3.1126
        57                         -0.0616263              -1.6769
        58                         -0.0510030              -1.3879
        59                         -0.0314950              -0.8570
       ...                                ...                  ...
        92                          1.1657622              31.7220
      -------------------------------------------------------------
                  HL-Gap            0.1100782 Eh            2.9954 eV
             Fermi-level           -0.3609001 Eh           -9.8206 eV

 SCC (total)                   0 d,  0 h,  0 min,  0.043 sec
 SCC setup                      ...        0 min,  0.000 sec (  0.511%)
 Dispersion                     ...        0 min,  0.000 sec (  0.658%)
 classical contributions        ...        0 min,  0.000 sec (  0.144%)
 integral evaluation            ...        0 min,  0.006 sec ( 14.701%)
 iterations                     ...        0 min,  0.017 sec ( 40.322%)
 molecular gradient             ...        0 min,  0.019 sec ( 43.198%)
 printout                       ...        0 min,  0.000 sec (  0.423%)

         :::::::::::::::::::::::::::::::::::::::::::::::::::::
         ::                     SUMMARY                     ::
         :::::::::::::::::::::::::::::::::::::::::::::::::::::
         :: total energy             -65.927889598433 Eh    ::
         :: gradient norm              0.105301328327 Eh/a0 ::
         :: HOMO-LUMO gap              2.995380968602 eV    ::
         ::.................................................::
         :: SCC energy               -66.353543733075 Eh    ::
         :: -> isotropic ES            0.250246305092 Eh    ::
         :: -> anisotropic ES         -0.007553124430 Eh    ::
         :: -> anisotropic XC         -0.004728728861 Eh    ::
         :: -> dispersion             -0.028338141698 Eh    ::
         :: repulsion energy           0.425568272671 Eh    ::
         :: add. restraining           0.000000000000 Eh    ::
         :: total charge              -0.000000000000 e     ::
         :::::::::::::::::::::::::::::::::::::::::::::::::::::


Property printout bound to 'properties.out'

           -------------------------------------------------
          | TOTAL ENERGY              -65.927889598433 Eh   |
          | GRADIENT NORM               0.105301328327 Eh/α |
          | HOMO-LUMO GAP               2.995380968602 eV   |
           -------------------------------------------------

------------------------------------------------------------------------
 * finished run on 2023/12/04 at 14:43:59.179     
------------------------------------------------------------------------
 total:
 * wall-time:     0 d,  0 h,  0 min,  0.056 sec
 *  cpu-time:     0 d,  0 h,  0 min,  0.056 sec
 * ratio c/w:     1.005 speedup
 SCF:
 * wall-time:     0 d,  0 h,  0 min,  0.043 sec
 *  cpu-time:     0 d,  0 h,  0 min,  0.044 sec
 * ratio c/w:     1.018 speedup


-------------------------   --------------------
FINAL SINGLE POINT ENERGY       -65.927889598430
-------------------------   --------------------

------------------------------------------------------------------------------
                         ORCA GEOMETRY RELAXATION STEP
------------------------------------------------------------------------------

Reading the OPT-File                    .... done
Getting information on internals        .... done
Copying old internal coords+grads       .... done
Making the new internal coordinates     .... (new redundants).... done
Validating the new internal coordinates .... (new redundants).... done
Calculating the B-matrix                .... done
Calculating the G,G- and P matrices     .... done
Transforming gradient to internals      .... done
Projecting the internal gradient        .... done
Number of atoms                         ....  33
Number of internal coordinates          .... 160
Current Energy                          ....   -65.927889598 Eh
Current gradient norm                   ....     0.105301328 Eh/bohr
Maximum allowed component of the step   ....  0.300
Current trust radius                    ....  0.300
Evaluating the initial hessian          ....  (Almloef) done
Projecting the Hessian                  .... done
Forming the augmented Hessian           .... done
Diagonalizing the augmented Hessian     .... done
Last element of RFO vector              ....  0.975705303
Lowest eigenvalues of augmented Hessian:
 -0.012529699  0.010050209  0.010183861  0.010266303  0.010811316
Length of the computed step             ....  0.224542298
The final length of the internal step   ....  0.224542298
Converting the step to cartesian space:
 Initial RMS(Int)=    0.0177516273
Transforming coordinates:
 Iter   0:  RMS(Cart)=    0.0568389221 RMS(Int)=    0.4950339125
 Iter   1:  RMS(Cart)=    0.0006819684 RMS(Int)=    0.0004108108
 Iter   2:  RMS(Cart)=    0.0000247482 RMS(Int)=    0.0000143565
 Iter   3:  RMS(Cart)=    0.0000012007 RMS(Int)=    0.0000008878
 Iter   4:  RMS(Cart)=    0.0000000633 RMS(Int)=    0.0000000448
done
Storing new coordinates                 .... done

                                .--------------------.
          ----------------------|Geometry convergence|-------------------------
          Item                value                   Tolerance       Converged
          ---------------------------------------------------------------------
          RMS gradient        0.0063972637            0.0001000000      NO
          MAX gradient        0.0407235491            0.0003000000      NO
          RMS step            0.0177516273            0.0020000000      NO
          MAX step            0.0437759883            0.0040000000      NO
          ........................................................
          Max(Bonds)      0.0232      Max(Angles)    2.00
          Max(Dihed)        2.31      Max(Improp)    0.00
          ---------------------------------------------------------------------

The optimization has not yet converged - more geometry cycles are needed


    ---------------------------------------------------------------------------
                         Redundant Internal Coordinates
                            (Angstroem and degrees)

        Definition                    Value    dE/dq     Step     New-Value
    ----------------------------------------------------------------------------
     1. B(C   1,O   0)                1.2367  0.035796 -0.0190    1.2177   
     2. B(C   2,C   1)                1.5222  0.011317 -0.0151    1.5071   
     3. B(O   3,C   2)                1.4200  0.011799 -0.0122    1.4078   
     4. B(C   4,C   1)                1.5249 -0.001239  0.0017    1.5265   
     5. B(O   5,C   4)                1.4294  0.015417 -0.0164    1.4130   
     6. B(C   6,C   4)                1.5451  0.005202 -0.0075    1.5376   
     7. B(O   7,C   6)                1.4415  0.014832 -0.0165    1.4250   
     8. B(C   8,C   6)                1.5431  0.008058 -0.0116    1.5316   
     9. B(O   9,C   8)                1.4400  0.020933 -0.0232    1.4169   
    10. B(C  10,C   8)                1.5419  0.007430 -0.0106    1.5313   
    11. B(O  11,C  10)                1.4428  0.011805 -0.0132    1.4296   
    12. B(C  12,C  10)                1.5266  0.004524 -0.0061    1.5205   
    13. B(O  13,C  12)                1.4241 -0.002362  0.0025    1.4265   
    14. B(P  14,O  13)                1.5976  0.003243 -0.0019    1.5957   
    15. B(O  15,P  14)                1.4884  0.040724 -0.0163    1.4721   
    16. B(O  16,P  14)                1.5922 -0.000347  0.0002    1.5924   
    17. B(O  17,P  14)                1.5986 -0.009773  0.0058    1.6044   
    18. B(H  18,C   2)                1.0930  0.001263 -0.0018    1.0912   
    19. B(H  19,C   2)                1.0933 -0.003661  0.0053    1.0985   
    20. B(H  20,O   3)                0.9772  0.007552 -0.0080    0.9692   
    21. B(H  21,C   4)                1.0942  0.001161 -0.0017    1.0925   
    22. B(H  22,O   5)                0.9789  0.006523 -0.0069    0.9720   
    23. B(H  23,C   6)                1.0971  0.000173 -0.0003    1.0968   
    24. B(H  24,O   7)                0.9840  0.009989 -0.0108    0.9732   
    25. B(H  25,C   8)                1.0963  0.001947 -0.0028    1.0935   
    26. B(H  26,O   9)                0.9813  0.010970 -0.0118    0.9695   
    27. B(H  27,C  10)                1.0974 -0.001666  0.0024    1.0998   
    28. B(H  28,O  11)                0.9786  0.011873 -0.0126    0.9660   
    29. B(H  29,C  12)                1.0931  0.000167 -0.0002    1.0928   
    30. B(H  30,C  12)                1.0938  0.000664 -0.0010    1.0928   
    31. B(H  31,O  16)                0.9729  0.012608 -0.0131    0.9598   
    32. B(H  32,O  17)                0.9781  0.018981 -0.0201    0.9580   
    33. A(O   0,C   1,C   4)          122.09 -0.001822    0.20    122.29   
    34. A(C   2,C   1,C   4)          116.45 -0.000340    0.01    116.46   
    35. A(O   0,C   1,C   2)          121.37  0.002207   -0.32    121.04   
    36. A(C   1,C   2,H  19)          109.03  0.004343   -0.87    108.16   
    37. A(H  18,C   2,H  19)          109.80  0.001142   -0.52    109.29   
    38. A(O   3,C   2,H  18)          107.96  0.001130   -0.09    107.87   
    39. A(C   1,C   2,O   3)          111.68 -0.000031    0.14    111.82   
    40. A(C   1,C   2,H  18)          109.54 -0.002269    0.37    109.91   
    41. A(O   3,C   2,H  19)          108.81 -0.004351    0.97    109.78   
    42. A(C   2,O   3,H  20)          106.55 -0.002776    0.43    106.99   
    43. A(O   5,C   4,C   6)          110.36 -0.000788   -0.24    110.12   
    44. A(C   1,C   4,C   6)          110.24  0.001083    0.01    110.25   
    45. A(C   6,C   4,H  21)          111.35  0.000949   -0.16    111.19   
    46. A(C   1,C   4,H  21)          107.91 -0.003873    1.43    109.34   
    47. A(C   1,C   4,O   5)          107.69  0.000587   -0.21    107.48   
    48. A(O   5,C   4,H  21)          109.19  0.001984   -0.81    108.37   
    49. A(C   4,O   5,H  22)          105.94  0.000365   -0.06    105.89   
    50. A(O   7,C   6,C   8)          110.01  0.000162   -0.16    109.84   
    51. A(C   8,C   6,H  23)          109.37 -0.000237   -0.05    109.32   
    52. A(C   4,C   6,C   8)          111.31  0.002661   -0.86    110.45   
    53. A(O   7,C   6,H  23)          108.46 -0.001345    0.94    109.40   
    54. A(C   4,C   6,H  23)          109.78 -0.000432    0.08    109.86   
    55. A(C   4,C   6,O   7)          107.85 -0.000915    0.10    107.96   
    56. A(C   6,O   7,H  24)          105.26  0.000345   -0.05    105.20   
    57. A(O   9,C   8,C  10)          106.91 -0.004428    0.98    107.89   
    58. A(C   6,C   8,C  10)          115.11  0.006653   -1.25    113.86   
    59. A(C  10,C   8,H  25)          108.45 -0.002575    0.63    109.08   
    60. A(C   6,C   8,O   9)          108.63 -0.000620    0.02    108.65   
    61. A(O   9,C   8,H  25)          107.94  0.002226   -0.34    107.61   
    62. A(C   6,C   8,H  25)          109.55 -0.001438    0.01    109.57   
    63. A(C   8,O   9,H  26)          105.29 -0.001904    0.30    105.60   
    64. A(C   8,C  10,C  12)          115.67  0.001234   -0.82    114.85   
    65. A(C   8,C  10,O  11)          108.04  0.002973   -0.77    107.27   
    66. A(C  12,C  10,H  27)          109.50  0.001134   -0.22    109.28   
    67. A(O  11,C  10,H  27)          104.93 -0.003551    1.89    106.82   
    68. A(C   8,C  10,H  27)          108.51 -0.000154   -0.18    108.33   
    69. A(O  11,C  10,C  12)          109.65 -0.002099    0.36    110.01   
    70. A(C  10,O  11,H  28)          105.49 -0.003315    0.53    106.02   
    71. A(O  13,C  12,H  30)          109.75 -0.002581    0.45    110.20   
    72. A(C  10,C  12,H  30)          110.86 -0.000549   -0.23    110.62   
    73. A(O  13,C  12,H  29)          106.84 -0.006368    1.55    108.38   
    74. A(C  10,C  12,H  29)          111.10  0.002524   -0.60    110.50   
    75. A(H  29,C  12,H  30)          110.45  0.000693   -0.28    110.17   
    76. A(C  10,C  12,O  13)          107.72  0.006137   -0.82    106.90   
    77. A(C  12,O  13,P  14)          119.03  0.000351   -0.04    118.99   
    78. A(O  16,P  14,O  17)          100.54 -0.006201    1.34    101.88   
    79. A(O  15,P  14,O  17)          110.07 -0.010473    2.00    112.06   
    80. A(O  13,P  14,O  17)          104.60  0.001716   -0.00    104.59   
    81. A(O  15,P  14,O  16)          115.53 -0.001236    0.00    115.54   
    82. A(O  13,P  14,O  16)          107.67  0.005631   -1.27    106.39   
    83. A(O  13,P  14,O  15)          116.70  0.008418   -1.57    115.13   
    84. A(P  14,O  16,H  31)          112.16 -0.000889    0.12    112.28   
    85. A(P  14,O  17,H  32)          108.52  0.001842   -0.25    108.27   
    86. D(O   3,C   2,C   1,C   4)    169.15  0.000137    1.59    170.74   
    87. D(H  19,C   2,C   1,O   0)    105.88 -0.001699    0.34    106.22   
    88. D(H  18,C   2,C   1,C   4)     49.60  0.000239    1.37     50.98   
    89. D(H  18,C   2,C   1,O   0)   -133.94  0.000977   -0.60   -134.54   
    90. D(O   3,C   2,C   1,O   0)    -14.40  0.000875   -0.38    -14.77   
    91. D(H  19,C   2,C   1,C   4)    -70.58 -0.002437    2.31    -68.27   
    92. D(H  20,O   3,C   2,C   1)     34.18  0.002598   -2.16     32.02   
    93. D(H  20,O   3,C   2,H  18)    154.66  0.000509   -1.67    152.99   
    94. D(H  20,O   3,C   2,H  19)    -86.22  0.000080   -1.80    -88.02   
    95. D(H  21,C   4,C   1,O   0)    144.43 -0.000874    1.38    145.82   
    96. D(O   5,C   4,C   1,C   2)     78.61  0.000620   -0.93     77.68   
    97. D(O   5,C   4,C   1,O   0)    -97.82 -0.000279    1.08    -96.74   
    98. D(C   6,C   4,C   1,C   2)   -160.94  0.000658   -1.34   -162.28   
    99. D(H  21,C   4,C   1,C   2)    -39.14  0.000026   -0.62    -39.77   
   100. D(C   6,C   4,C   1,O   0)     22.63 -0.000241    0.66     23.30   
   101. D(H  22,O   5,C   4,H  21)   -159.95 -0.002511    2.12   -157.83   
   102. D(H  22,O   5,C   4,C   6)    -37.25 -0.000520    1.23    -36.02   
   103. D(H  22,O   5,C   4,C   1)     83.13  0.000697    0.97     84.09   
   104. D(H  23,C   6,C   4,H  21)    -71.67  0.000820   -0.28    -71.95   
   105. D(H  23,C   6,C   4,O   5)    166.90 -0.001795    1.02    167.92   
   106. D(C   8,C   6,C   4,H  21)     49.58  0.001980   -0.86     48.72   
   107. D(C   8,C   6,C   4,O   5)    -71.85 -0.000635    0.44    -71.41   
   108. D(C   8,C   6,C   4,C   1)    169.32 -0.001547    0.84    170.16   
   109. D(H  23,C   6,C   4,C   1)     48.07 -0.002706    1.42     49.49   
   110. D(O   7,C   6,C   4,H  21)    170.34  0.003204   -1.51    168.82   
   111. D(O   7,C   6,C   4,O   5)     48.91  0.000589   -0.21     48.69   
   112. D(O   7,C   6,C   4,C   1)    -69.92 -0.000323    0.19    -69.74   
   113. D(H  24,O   7,C   6,H  23)    -50.52  0.000796   -1.15    -51.66   
   114. D(H  24,O   7,C   6,C   8)   -170.10  0.001807   -1.56   -171.66   
   115. D(H  24,O   7,C   6,C   4)     68.33 -0.000971   -0.48     67.85   
   116. D(O   9,C   8,C   6,C   4)    -56.70 -0.001165    0.14    -56.55   
   117. D(H  25,C   8,C   6,O   7)    -58.49 -0.000323    0.28    -58.21   
   118. D(H  25,C   8,C   6,C   4)     61.00  0.000340   -0.24     60.75   
   119. D(C  10,C   8,C   6,H  23)    -55.01  0.001640   -0.80    -55.82   
   120. D(C  10,C   8,C   6,O   7)     64.01 -0.000054    0.22     64.23   
   121. D(C  10,C   8,C   6,C   4)   -176.50  0.000609   -0.31   -176.80   
   122. D(O   9,C   8,C   6,H  23)     64.79 -0.000135   -0.36     64.43   
   123. D(H  25,C   8,C   6,H  23)   -177.52  0.001370   -0.74   -178.26   
   124. D(O   9,C   8,C   6,O   7)   -176.18 -0.001828    0.67   -175.52   
   125. D(H  26,O   9,C   8,H  25)    152.14 -0.002098    2.31    154.45   
   126. D(H  26,O   9,C   8,C  10)     35.64  0.002058    1.24     36.89   
   127. D(H  26,O   9,C   8,C   6)    -89.15 -0.002905    2.15    -87.00   
   128. D(H  27,C  10,C   8,H  25)    -56.87 -0.001103    0.75    -56.11   
   129. D(H  27,C  10,C   8,O   9)     59.29 -0.002105    1.19     60.48   
   130. D(H  27,C  10,C   8,C   6)   -179.96 -0.001901    1.13   -178.83   
   131. D(C  12,C  10,C   8,H  25)     66.59  0.001159   -0.26     66.33   
   132. D(C  12,C  10,C   8,O   9)   -177.24  0.000158    0.17   -177.08   
   133. D(C  12,C  10,C   8,C   6)    -56.50  0.000361    0.11    -56.39   
   134. D(O  11,C  10,C   8,H  25)   -170.11  0.001616   -0.97   -171.09   
   135. D(O  11,C  10,C   8,O   9)    -53.95  0.000614   -0.54    -54.49   
   136. D(O  11,C  10,C   8,C   6)     66.80  0.000818   -0.60     66.20   
   137. D(H  28,O  11,C  10,H  27)     67.73 -0.000545    0.57     68.30   
   138. D(H  28,O  11,C  10,C  12)    -49.78  0.001075   -0.37    -50.16   
   139. D(H  28,O  11,C  10,C   8)   -176.66 -0.001114    0.94   -175.71   
   140. D(H  30,C  12,C  10,O  11)   -174.19 -0.003136    1.13   -173.06   
   141. D(H  30,C  12,C  10,C   8)    -51.75  0.000038   -0.20    -51.95   
   142. D(H  29,C  12,C  10,H  27)   -165.59  0.003933   -2.16   -167.75   
   143. D(H  29,C  12,C  10,O  11)    -50.98 -0.000849    0.18    -50.80   
   144. D(H  29,C  12,C  10,C   8)     71.46  0.002325   -1.15     70.32   
   145. D(O  13,C  12,C  10,H  27)    -48.90  0.001286   -1.12    -50.01   
   146. D(O  13,C  12,C  10,O  11)     65.72 -0.003496    1.22     66.95   
   147. D(H  30,C  12,C  10,H  27)     71.19  0.001647   -1.21     69.98   
   148. D(O  13,C  12,C  10,C   8)   -171.84 -0.000322   -0.10   -171.94   
   149. D(P  14,O  13,C  12,H  30)     52.65 -0.001628   -0.16     52.50   
   150. D(P  14,O  13,C  12,H  29)    -67.11  0.002707   -0.98    -68.10   
   151. D(P  14,O  13,C  12,C  10)    173.44 -0.000073   -0.67    172.76   
   152. D(O  17,P  14,O  13,C  12)    -57.45 -0.000882    0.11    -57.35   
   153. D(O  16,P  14,O  13,C  12)     48.89 -0.005018    1.12     50.01   
   154. D(O  15,P  14,O  13,C  12)   -179.32  0.006009   -1.47   -180.79   
   155. D(H  31,O  16,P  14,O  17)     32.66  0.006193   -1.25     31.41   
   156. D(H  31,O  16,P  14,O  15)    151.06 -0.010985    2.02    153.08   
   157. D(H  31,O  16,P  14,O  13)    -76.50  0.005076   -1.39    -77.89   
   158. D(H  32,O  17,P  14,O  16)    131.14 -0.004912    1.42    132.57   
   159. D(H  32,O  17,P  14,O  15)      8.82  0.004655   -0.22      8.60   
   160. D(H  32,O  17,P  14,O  13)   -117.30 -0.000521    0.52   -116.78   
    ----------------------------------------------------------------------------

         *************************************************************
         *                GEOMETRY OPTIMIZATION CYCLE   2            *
         *************************************************************
---------------------------------
CARTESIAN COORDINATES (ANGSTROEM)
---------------------------------
  O    -2.971528    1.371537    0.763395
  C    -3.252203    0.713000   -0.221654
  C    -4.669471    0.639212   -0.728998
  O    -5.591951    1.108358    0.225382
  C    -2.187241    0.032405   -1.077790
  O    -1.913142    0.884541   -2.171064
  C    -0.909783   -0.198461   -0.253851
  O    -0.312094    1.070981   -0.005164
  C     0.068379   -1.092000   -1.022270
  O    -0.585818   -2.306250   -1.346455
  C     1.338521   -1.436570   -0.239354
  O     0.946279   -2.249800    0.869096
  C     2.131957   -0.235966    0.251546
  O     3.357493   -0.737554    0.782083
  P     4.490399    0.296385    1.222161
  O     5.711777   -0.312680    1.773783
  O     3.778600    1.371057    2.157053
  O     4.789557    1.155455   -0.099444
  H    -4.926959   -0.394913   -0.963349
  H    -4.738196    1.246099   -1.642074
  H    -5.145844    1.803301    0.732709
  H    -2.582326   -0.909346   -1.465822
  H    -1.259951    1.528387   -1.849312
  H    -1.163317   -0.675170    0.700892
  H    -0.926594    1.529340    0.594335
  H     0.348022   -0.606202   -1.961118
  H    -0.454902   -2.885536   -0.580127
  H     1.980928   -2.059122   -0.879148
  H     1.747864   -2.398997    1.387131
  H     1.593902    0.276789    1.052695
  H     2.331778    0.455572   -0.570677
  H     3.277652    2.016492    1.653435
  H     5.698215    0.999556   -0.359723

----------------------------
CARTESIAN COORDINATES (A.U.)
----------------------------
  NO LB    ZA    FRAG    MASS        X           Y           Z
   0 O   8.0000    0    15.999   -5.615375    2.591829    1.442608
   1 C   6.0000    0    12.011   -6.145773    1.347374   -0.418865
   2 C   6.0000    0    12.011   -8.824022    1.207935   -1.377606
   3 O   8.0000    0    15.999  -10.567255    2.094494    0.425910
   4 C   6.0000    0    12.011   -4.133287    0.061236   -2.036728
   5 O   8.0000    0    15.999   -3.615314    1.671539   -4.102717
   6 C   6.0000    0    12.011   -1.719241   -0.375037   -0.479708
   7 O   8.0000    0    15.999   -0.589772    2.023861   -0.009759
   8 C   6.0000    0    12.011    0.129218   -2.063581   -1.931811
   9 O   8.0000    0    15.999   -1.107036   -4.358181   -2.544431
  10 C   6.0000    0    12.011    2.529438   -2.714724   -0.452314
  11 O   8.0000    0    15.999    1.788208   -4.251507    1.642353
  12 C   6.0000    0    12.011    4.028815   -0.445911    0.475353
  13 O   8.0000    0    15.999    6.344742   -1.393774    1.477923
  14 P  15.0000    0    30.974    8.485624    0.560087    2.309549
  15 O   8.0000    0    15.999   10.793693   -0.590879    3.351963
  16 O   8.0000    0    15.999    7.140518    2.590922    4.076239
  17 O   8.0000    0    15.999    9.050950    2.183493   -0.187922
  18 H   1.0000    0     1.008   -9.310604   -0.746277   -1.820466
  19 H   1.0000    0     1.008   -8.953894    2.354785   -3.103071
  20 H   1.0000    0     1.008   -9.724235    3.407745    1.384620
  21 H   1.0000    0     1.008   -4.879889   -1.718415   -2.770002
  22 H   1.0000    0     1.008   -2.380963    2.888233   -3.494693
  23 H   1.0000    0     1.008   -2.198351   -1.275886    1.324495
  24 H   1.0000    0     1.008   -1.751008    2.890034    1.123130
  25 H   1.0000    0     1.008    0.657666   -1.145556   -3.705975
  26 H   1.0000    0     1.008   -0.859641   -5.452873   -1.096282
  27 H   1.0000    0     1.008    3.743412   -3.891176   -1.661350
  28 H   1.0000    0     1.008    3.302985   -4.533448    2.621298
  29 H   1.0000    0     1.008    3.012039    0.523055    1.989305
  30 H   1.0000    0     1.008    4.406421    0.860907   -1.078424
  31 H   1.0000    0     1.008    6.193864    3.810617    3.124539
  32 H   1.0000    0     1.008   10.768066    1.888888   -0.679778

      -----------------------------------------------------------      
     |                   =====================                   |     
     |                           x T B                           |     
     |                   =====================                   |     
     |                         S. Grimme                         |     
     |          Mulliken Center for Theoretical Chemistry        |     
     |                    University of Bonn                     |     
      -----------------------------------------------------------      

   * xtb version 6.5.1 (579679a) compiled by 'ehlert@majestix' on 2022-07-11

   xtb is free software: you can redistribute it and/or modify it under
   the terms of the GNU Lesser General Public License as published by
   the Free Software Foundation, either version 3 of the License, or
   (at your option) any later version.
   
   xtb is distributed in the hope that it will be useful,
   but WITHOUT ANY WARRANTY; without even the implied warranty of
   MERCHANTABILITY or FITNESS FOR A PARTICULAR PURPOSE.  See the
   GNU Lesser General Public License for more details.
   
   Cite this work as:
   * C. Bannwarth, E. Caldeweyher, S. Ehlert, A. Hansen, P. Pracht,
     J. Seibert, S. Spicher, S. Grimme, WIREs Comput. Mol. Sci., 2020, 11,
     e01493. DOI: 10.1002/wcms.1493
   
   for GFN2-xTB:
   * C. Bannwarth, S. Ehlert and S. Grimme., J. Chem. Theory Comput., 2019,
     15, 1652-1671. DOI: 10.1021/acs.jctc.8b01176
   for GFN1-xTB:
   * S. Grimme, C. Bannwarth, P. Shushkov, J. Chem. Theory Comput., 2017,
     13, 1989-2009. DOI: 10.1021/acs.jctc.7b00118
   for GFN0-xTB:
   * P. Pracht, E. Caldeweyher, S. Ehlert, S. Grimme, ChemRxiv, 2019, preprint.
     DOI: 10.26434/chemrxiv.8326202.v1
   for GFN-FF:
   * S. Spicher and S. Grimme, Angew. Chem. Int. Ed., 2020, 59, 15665-15673.
     DOI: 10.1002/anie.202004239
   
   for ALPB and GBSA implicit solvation:
   * S. Ehlert, M. Stahn, S. Spicher, S. Grimme, J. Chem. Theory Comput.,
     2021, 17, 4250-4261. DOI: 10.1021/acs.jctc.1c00471
   
   for DFT-D4:
   * E. Caldeweyher, C. Bannwarth and S. Grimme, J. Chem. Phys., 2017,
     147, 034112. DOI: 10.1063/1.4993215
   * E. Caldeweyher, S. Ehlert, A. Hansen, H. Neugebauer, S. Spicher,
     C. Bannwarth and S. Grimme, J. Chem. Phys., 2019, 150, 154122.
     DOI: 10.1063/1.5090222
   * E. Caldeweyher, J.-M. Mewes, S. Ehlert and S. Grimme, Phys. Chem. Chem. Phys.
     2020, 22, 8499-8512. DOI: 10.1039/D0CP00502A
   
   for sTDA-xTB:
   * S. Grimme and C. Bannwarth, J. Chem. Phys., 2016, 145, 054103.
     DOI: 10.1063/1.4959605
   
   in the mass-spec context:
   * V. Asgeirsson, C. Bauer and S. Grimme, Chem. Sci., 2017, 8, 4879.
     DOI: 10.1039/c7sc00601b
   * J. Koopman and S. Grimme, ACS Omega 2019, 4, 12, 15120-15133.
     DOI: 10.1021/acsomega.9b02011
   
   for metadynamics refer to:
   * S. Grimme, J. Chem. Theory Comput., 2019, 155, 2847-2862
     DOI: 10.1021/acs.jctc.9b00143
   
   for SPH calculations refer to:
   * S. Spicher and S. Grimme, J. Chem. Theory Comput., 2021, 17, 1701-1714
     DOI: 10.1021/acs.jctc.0c01306
   
   with help from (in alphabetical order)
   P. Atkinson, C. Bannwarth, F. Bohle, G. Brandenburg, E. Caldeweyher
   M. Checinski, S. Dohm, S. Ehlert, S. Ehrlich, I. Gerasimov, C. Hölzer
   A. Katbashev, J. Koopman, C. Lavigne, S. Lehtola, F. März, M. Müller,
   F. Musil, H. Neugebauer, J. Pisarek, C. Plett, P. Pracht, F. Pultar,
   J. Seibert, P. Shushkov, S. Spicher, M. Stahn, M. Steiner, T. Strunk,
   J. Stückrath, T. Rose, and J. Unsleber
   
 * started run on 2023/12/04 at 14:43:59.296     

           -------------------------------------------------
          |                Calculation Setup                |
           -------------------------------------------------

          program call               : otool_xtb /tmp/C05382_XTB.xyz --grad -c 0 -u 0 -P 1 --namespace /tmp/C05382 --input /tmp/C05382_XTB.input.tmp --acc 1.000000
          calculation namespace      : /tmp/C05382
          coordinate file            : /tmp/C05382_XTB.xyz
          omp threads                :                     1

   ID    Z sym.   atoms
    1    8 O      1, 4, 6, 8, 10, 12, 14, 16-18
    2    6 C      2, 3, 5, 7, 9, 11, 13
    3   15 P      15
    4    1 H      19-33

           -------------------------------------------------
          |                 G F N 2 - x T B                 |
           -------------------------------------------------

        Reference                      10.1021/acs.jctc.8b01176
      * Hamiltonian:
        H0-scaling (s, p, d)           1.850000    2.230000    2.230000
        zeta-weighting                 0.500000
      * Dispersion:
        s8                             2.700000
        a1                             0.520000
        a2                             5.000000
        s9                             5.000000
      * Repulsion:
        kExp                           1.500000    1.000000
        rExp                           1.000000
      * Coulomb:
        alpha                          2.000000
        third order                    shell-resolved
        anisotropic                    true
        a3                             3.000000
        a5                             4.000000
        cn-shift                       1.200000
        cn-exp                         4.000000
        max-rad                        5.000000

q/qsh data taken from xtbrestart
CAMM data taken from xtbrestart

          ...................................................
          :                      SETUP                      :
          :.................................................:
          :  # basis functions                  93          :
          :  # atomic orbitals                  92          :
          :  # shells                           52          :
          :  # electrons                       108          :
          :  max. iterations                   250          :
          :  Hamiltonian                  GFN2-xTB          :
          :  restarted?                       true          :
          :  GBSA solvation                  false          :
          :  PC potential                    false          :
          :  electronic temp.          300.0000000     K    :
          :  accuracy                    1.0000000          :
          :  -> integral cutoff          0.2500000E+02      :
          :  -> integral neglect         0.1000000E-07      :
          :  -> SCF convergence          0.1000000E-05 Eh   :
          :  -> wf. convergence          0.1000000E-03 e    :
          :  Broyden damping             0.4000000          :
          ...................................................

 iter      E             dE          RMSdq      gap      omega  full diag
   1    -66.3902993 -0.663903E+02  0.264E-01    3.12       0.0  T
   2    -66.3903555 -0.562131E-04  0.159E-01    3.10       1.0  T
   3    -66.3903550  0.452397E-06  0.334E-02    3.11       1.0  T
   4    -66.3903639 -0.891758E-05  0.974E-03    3.10       1.8  T
   5    -66.3903646 -0.608646E-06  0.486E-03    3.11       3.6  T
   6    -66.3903648 -0.215415E-06  0.198E-03    3.11       8.8  T
   7    -66.3903648 -0.155881E-07  0.844E-04    3.11      20.6  T
   8    -66.3903648 -0.150277E-08  0.214E-04    3.11      81.3  T

   *** convergence criteria satisfied after 8 iterations ***

         #    Occupation            Energy/Eh            Energy/eV
      -------------------------------------------------------------
         1        2.0000           -0.7573978             -20.6098
       ...           ...                  ...                  ...
        48        2.0000           -0.4504024             -12.2561
        49        2.0000           -0.4482599             -12.1978
        50        2.0000           -0.4454634             -12.1217
        51        2.0000           -0.4413545             -12.0099
        52        2.0000           -0.4412394             -12.0067
        53        2.0000           -0.4361261             -11.8676
        54        2.0000           -0.4132059             -11.2439 (HOMO)
        55                         -0.2990373              -8.1372 (LUMO)
        56                         -0.0966607              -2.6303
        57                         -0.0522334              -1.4213
        58                         -0.0326777              -0.8892
        59                         -0.0275727              -0.7503
       ...                                ...                  ...
        92                          1.1961049              32.5477
      -------------------------------------------------------------
                  HL-Gap            0.1141686 Eh            3.1067 eV
             Fermi-level           -0.3561216 Eh           -9.6906 eV

 SCC (total)                   0 d,  0 h,  0 min,  0.038 sec
 SCC setup                      ...        0 min,  0.000 sec (  0.594%)
 Dispersion                     ...        0 min,  0.000 sec (  0.799%)
 classical contributions        ...        0 min,  0.000 sec (  0.168%)
 integral evaluation            ...        0 min,  0.006 sec ( 16.444%)
 iterations                     ...        0 min,  0.012 sec ( 31.848%)
 molecular gradient             ...        0 min,  0.019 sec ( 49.638%)
 printout                       ...        0 min,  0.000 sec (  0.462%)

         :::::::::::::::::::::::::::::::::::::::::::::::::::::
         ::                     SUMMARY                     ::
         :::::::::::::::::::::::::::::::::::::::::::::::::::::
         :: total energy             -65.936401127421 Eh    ::
         :: gradient norm              0.053379302224 Eh/a0 ::
         :: HOMO-LUMO gap              3.106686732697 eV    ::
         ::.................................................::
         :: SCC energy               -66.390364784107 Eh    ::
         :: -> isotropic ES            0.246965794368 Eh    ::
         :: -> anisotropic ES         -0.008148393221 Eh    ::
         :: -> anisotropic XC         -0.006253433275 Eh    ::
         :: -> dispersion             -0.028693483481 Eh    ::
         :: repulsion energy           0.453878314675 Eh    ::
         :: add. restraining           0.000000000000 Eh    ::
         :: total charge               0.000000000000 e     ::
         :::::::::::::::::::::::::::::::::::::::::::::::::::::


Property printout bound to 'properties.out'

           -------------------------------------------------
          | TOTAL ENERGY              -65.936401127421 Eh   |
          | GRADIENT NORM               0.053379302224 Eh/α |
          | HOMO-LUMO GAP               3.106686732697 eV   |
           -------------------------------------------------

------------------------------------------------------------------------
 * finished run on 2023/12/04 at 14:43:59.347     
------------------------------------------------------------------------
 total:
 * wall-time:     0 d,  0 h,  0 min,  0.050 sec
 *  cpu-time:     0 d,  0 h,  0 min,  0.048 sec
 * ratio c/w:     0.956 speedup
 SCF:
 * wall-time:     0 d,  0 h,  0 min,  0.038 sec
 *  cpu-time:     0 d,  0 h,  0 min,  0.036 sec
 * ratio c/w:     0.952 speedup


-------------------------   --------------------
FINAL SINGLE POINT ENERGY       -65.936401127420
-------------------------   --------------------

------------------------------------------------------------------------------
                         ORCA GEOMETRY RELAXATION STEP
------------------------------------------------------------------------------

Reading the OPT-File                    .... done
Getting information on internals        .... done
Copying old internal coords+grads       .... done
Making the new internal coordinates     .... (new redundants).... done
Validating the new internal coordinates .... (new redundants).... done
Calculating the B-matrix                .... done
Calculating the G,G- and P matrices     .... done
Transforming gradient to internals      .... done
Projecting the internal gradient        .... done
Number of atoms                         ....  33
Number of internal coordinates          .... 160
Current Energy                          ....   -65.936401127 Eh
Current gradient norm                   ....     0.053379302 Eh/bohr
Maximum allowed component of the step   ....  0.300
Current trust radius                    ....  0.300
Updating the Hessian (BFGS)             .... done
Forming the augmented Hessian           .... done
Diagonalizing the augmented Hessian     .... done
Last element of RFO vector              ....  0.969935864
Lowest eigenvalues of augmented Hessian:
 -0.004689562  0.010050897  0.010220453  0.010328588  0.010812113
Length of the computed step             ....  0.250903885
The final length of the internal step   ....  0.250903885
Converting the step to cartesian space:
 Initial RMS(Int)=    0.0198356937
Transforming coordinates:
 Iter   0:  RMS(Cart)=    0.0583404672 RMS(Int)=    0.0198417551
 Iter   1:  RMS(Cart)=    0.0010903269 RMS(Int)=    0.0006234793
 Iter   2:  RMS(Cart)=    0.0000408012 RMS(Int)=    0.0000268621
 Iter   3:  RMS(Cart)=    0.0000024456 RMS(Int)=    0.0000017885
 Iter   4:  RMS(Cart)=    0.0000001234 RMS(Int)=    0.0000000861
 Iter   5:  RMS(Cart)=    0.0000000076 RMS(Int)=    0.0000000057
done
Storing new coordinates                 .... done

                                .--------------------.
          ----------------------|Geometry convergence|-------------------------
          Item                value                   Tolerance       Converged
          ---------------------------------------------------------------------
          Energy change      -0.0085115290            0.0000050000      NO
          RMS gradient        0.0027825843            0.0001000000      NO
          MAX gradient        0.0252364983            0.0003000000      NO
          RMS step            0.0198356937            0.0020000000      NO
          MAX step            0.0624645414            0.0040000000      NO
          ........................................................
          Max(Bonds)      0.0183      Max(Angles)    2.15
          Max(Dihed)        3.58      Max(Improp)    0.00
          ---------------------------------------------------------------------

The optimization has not yet converged - more geometry cycles are needed


    ---------------------------------------------------------------------------
                         Redundant Internal Coordinates
                            (Angstroem and degrees)

        Definition                    Value    dE/dq     Step     New-Value
    ----------------------------------------------------------------------------
     1. B(C   1,O   0)                1.2177  0.007588 -0.0096    1.2081   
     2. B(C   2,C   1)                1.5071  0.001135 -0.0049    1.5022   
     3. B(O   3,C   2)                1.4078  0.004766 -0.0096    1.3982   
     4. B(C   4,C   1)                1.5265 -0.002505  0.0055    1.5320   
     5. B(O   5,C   4)                1.4130  0.003495 -0.0086    1.4044   
     6. B(C   6,C   4)                1.5376 -0.001726  0.0026    1.5401   
     7. B(O   7,C   6)                1.4250  0.004591 -0.0107    1.4143   
     8. B(C   8,C   6)                1.5316 -0.003260  0.0052    1.5368   
     9. B(O   9,C   8)                1.4169  0.006538 -0.0151    1.4017   
    10. B(C  10,C   8)                1.5313 -0.002954  0.0047    1.5360   
    11. B(O  11,C  10)                1.4296  0.005889 -0.0124    1.4172   
    12. B(C  12,C  10)                1.5205 -0.001273  0.0016    1.5221   
    13. B(O  13,C  12)                1.4265 -0.000372  0.0010    1.4276   
    14. B(P  14,O  13)                1.5957  0.000364 -0.0007    1.5950   
    15. B(O  15,P  14)                1.4721  0.025236 -0.0183    1.4538   
    16. B(O  16,P  14)                1.5924 -0.000336  0.0003    1.5927   
    17. B(O  17,P  14)                1.6044 -0.005301  0.0059    1.6103   
    18. B(H  18,C   2)                1.0912 -0.000634  0.0011    1.0923   
    19. B(H  19,C   2)                1.0985 -0.001734  0.0047    1.1032   
    20. B(H  20,O   3)                0.9692  0.000639 -0.0024    0.9668   
    21. B(H  21,C   4)                1.0925 -0.000345  0.0005    1.0930   
    22. B(H  22,O   5)                0.9720  0.000389 -0.0019    0.9701   
    23. B(H  23,C   6)                1.0968 -0.000632  0.0014    1.0982   
    24. B(H  24,O   7)                0.9732  0.001144 -0.0038    0.9694   
    25. B(H  25,C   8)                1.0935 -0.000536  0.0007    1.0942   
    26. B(H  26,O   9)                0.9695  0.001287 -0.0042    0.9653   
    27. B(H  27,C  10)                1.0998 -0.000718  0.0020    1.1018   
    28. B(H  28,O  11)                0.9660  0.001477 -0.0046    0.9614   
    29. B(H  29,C  12)                1.0928  0.000670 -0.0015    1.0913   
    30. B(H  30,C  12)                1.0928  0.000183 -0.0006    1.0922   
    31. B(H  31,O  16)                0.9598  0.001934 -0.0054    0.9544   
    32. B(H  32,O  17)                0.9580  0.002507 -0.0076    0.9504   
    33. A(O   0,C   1,C   4)          122.28 -0.000425    0.13    122.41   
    34. A(C   2,C   1,C   4)          116.45  0.001101   -0.24    116.21   
    35. A(O   0,C   1,C   2)          121.03 -0.000665    0.09    121.12   
    36. A(C   1,C   2,H  19)          108.15  0.003287   -1.23    106.93   
    37. A(H  18,C   2,H  19)          109.29  0.001217   -0.95    108.34   
    38. A(O   3,C   2,H  18)          107.87  0.000668    0.09    107.95   
    39. A(C   1,C   2,O   3)          111.82 -0.000875    0.45    112.27   
    40. A(C   1,C   2,H  18)          109.91 -0.001720    0.60    110.52   
    41. A(O   3,C   2,H  19)          109.78 -0.002578    1.03    110.81   
    42. A(C   2,O   3,H  20)          106.99 -0.002150    0.59    107.58   
    43. A(O   5,C   4,C   6)          110.12 -0.001129    0.04    110.17   
    44. A(C   1,C   4,C   6)          110.24  0.000610   -0.01    110.24   
    45. A(C   6,C   4,H  21)          111.18  0.000860   -0.30    110.89   
    46. A(C   1,C   4,H  21)          109.34 -0.002194    1.36    110.70   
    47. A(C   1,C   4,O   5)          107.48  0.000765   -0.31    107.17   
    48. A(O   5,C   4,H  21)          108.37  0.001079   -0.78    107.59   
    49. A(C   4,O   5,H  22)          105.89 -0.001588    0.38    106.26   
    50. A(O   7,C   6,C   8)          109.84 -0.001572    0.63    110.47   
    51. A(C   8,C   6,H  23)          109.32  0.000583   -0.42    108.90   
    52. A(C   4,C   6,C   8)          110.45  0.001609   -0.93    109.52   
    53. A(O   7,C   6,H  23)          109.40 -0.000881    1.11    110.51   
    54. A(C   4,C   6,H  23)          109.86 -0.000295   -0.24    109.62   
    55. A(C   4,C   6,O   7)          107.95  0.000524   -0.09    107.86   
    56. A(C   6,O   7,H  24)          105.20 -0.001700    0.41    105.61   
    57. A(O   9,C   8,C  10)          107.89 -0.000645    0.53    108.42   
    58. A(C   6,C   8,C  10)          113.86  0.000991   -0.33    113.53   
    59. A(C  10,C   8,H  25)          109.08 -0.001194    0.58    109.66   
    60. A(C   6,C   8,O   9)          108.66 -0.000593    0.19    108.85   
    61. A(O   9,C   8,H  25)          107.60  0.000968   -0.63    106.97   
    62. A(C   6,C   8,H  25)          109.57  0.000480   -0.37    109.20   
    63. A(C   8,O   9,H  26)          105.60 -0.002839    0.75    106.34   
    64. A(C   8,C  10,C  12)          114.85 -0.002386    0.24    115.09   
    65. A(C   8,C  10,O  11)          107.27  0.002315   -0.63    106.64   
    66. A(C  12,C  10,H  27)          109.27  0.002073   -0.97    108.30   
    67. A(O  11,C  10,H  27)          106.82 -0.002448    1.70    108.52   
    68. A(C   8,C  10,H  27)          108.33  0.000787   -0.61    107.71   
    69. A(O  11,C  10,C  12)          110.00 -0.000402    0.41    110.41   
    70. A(C  10,O  11,H  28)          106.02 -0.002953    0.81    106.83   
    71. A(O  13,C  12,H  30)          110.20 -0.000848    0.32    110.52   
    72. A(C  10,C  12,H  30)          110.62 -0.000445   -0.10    110.52   
    73. A(O  13,C  12,H  29)          108.38 -0.002475    1.19    109.57   
    74. A(C  10,C  12,H  29)          110.50  0.001000   -0.47    110.03   
    75. A(H  29,C  12,H  30)          110.16  0.000498   -0.33    109.83   
    76. A(C  10,C  12,O  13)          106.90  0.002258   -0.58    106.32   
    77. A(C  12,O  13,P  14)          118.99 -0.000967    0.17    119.16   
    78. A(O  16,P  14,O  17)          101.86 -0.001383    0.95    102.81   
    79. A(O  15,P  14,O  17)          112.06 -0.006626    2.15    114.21   
    80. A(O  13,P  14,O  17)          104.60  0.000974   -0.08    104.53   
    81. A(O  15,P  14,O  16)          115.47 -0.000970    0.12    115.59   
    82. A(O  13,P  14,O  16)          106.37  0.001881   -1.06    105.31   
    83. A(O  13,P  14,O  15)          115.11  0.005678   -1.73    113.38   
    84. A(P  14,O  16,H  31)          112.28 -0.001522    0.33    112.61   
[...]
     43      -0.000118  -0.000350  -0.000046
     44       0.000061   0.000316   0.000324
     45       0.000007  -0.000344  -0.000163
     46       0.000073   0.000357   0.000215
     47      -0.000041  -0.000213  -0.000211
     48       0.000017   0.025150   0.001585
     49      -0.000040  -0.045082  -0.002620
     50       0.000056   0.035086   0.001511
     51      -0.000151   0.002892  -0.053257
     52       0.000103  -0.001380   0.024649
     53      -0.000017  -0.000958   0.021457
     54       0.000009  -0.000011  -0.000009
     55       0.000032  -0.000029   0.000002
     56      -0.000015   0.000002  -0.000007
     57      -0.000008   0.000006  -0.000013
     58      -0.000015   0.000007  -0.000002
     59       0.000016   0.000020  -0.000016
     60      -0.000210   0.000057  -0.000121
     61      -0.000127   0.000080  -0.000073
     62      -0.000215   0.000034  -0.000107
     63       0.000270  -0.000055  -0.000018
     64       0.000313  -0.000075   0.000021
     65       0.000220  -0.000042  -0.000013
     66      -0.000604   0.000922  -0.000280
     67      -0.000481   0.000919  -0.000149
     68      -0.000265   0.000387  -0.000111
     69       0.000529  -0.000133   0.000022
     70       0.000468  -0.000190   0.000032
     71      -0.001776   0.000225  -0.000086
     72      -0.000730   0.000635  -0.000125
     73       0.000618  -0.000006   0.000054
     74       0.000492  -0.000491   0.000053
     75      -0.000774  -0.000046  -0.000081
     76      -0.000613  -0.000025  -0.000022
     77       0.000638   0.000114  -0.000008
     78       0.000859  -0.000100  -0.000091
     79       0.016638   0.000222  -0.000116
     80      -0.018405  -0.000333   0.000009
     81      -0.001090   0.000011  -0.000139
     82       0.000807   0.000237  -0.000069
     83       0.001362   0.000225   0.000053
     84       0.771671  -0.001289  -0.002058
     85      -0.157379   0.000018   0.000241
     86       0.612590  -0.000961  -0.001572
     87      -0.000894  -0.001453   0.000715
     88       0.000980   0.000735  -0.000596
     89       0.000406  -0.000090  -0.000588
     90      -0.000700  -0.000601  -0.000786
     91       0.000104   0.000455  -0.000438
     92       0.000075  -0.000384   0.001160
     93      -0.000557  -0.400923  -0.022824
     94       0.001387   0.714583   0.039848
     95      -0.000970  -0.567222  -0.029349
     96       0.002183  -0.046406   0.849063
     97      -0.001077   0.022751  -0.396554
     98      -0.000601   0.017403  -0.339027


-----------
IR SPECTRUM
-----------

 Mode   freq       eps      Int      T**2         TX        TY        TZ
       cm**-1   L/(mol*cm) km/mol    a.u.
----------------------------------------------------------------------------
  6:     13.84   0.000060    0.30  0.001355  (-0.001920 -0.035595 -0.009189)
  7:     18.10   0.000520    2.63  0.008971  (-0.049702  0.074106  0.031769)
  8:     25.40   0.001091    5.52  0.013407  (-0.070665 -0.058728  0.070461)
  9:     35.70   0.000202    1.02  0.001763  ( 0.008297  0.025945 -0.031947)
 10:     45.25   0.000614    3.10  0.004232  ( 0.035728  0.041367  0.035272)
 11:     63.69   0.000322    1.63  0.001576  ( 0.009936 -0.038324  0.002941)
 12:     87.88   0.002727   13.78  0.009685  (-0.079196 -0.058421  0.000383)
 13:     95.64   0.001978   10.00  0.006454  ( 0.037843 -0.062571  0.033267)
 14:    112.50   0.001855    9.37  0.005146  (-0.024684 -0.036098  0.056864)
 15:    124.15   0.001863    9.42  0.004684  (-0.046657  0.035984 -0.034814)
 16:    157.66   0.004519   22.84  0.008944  ( 0.078431  0.044108 -0.029106)
 17:    170.78   0.002701   13.65  0.004936  ( 0.035401  0.047746 -0.037461)
 18:    182.89   0.011089   56.04  0.018920  ( 0.117073  0.045263 -0.056262)
 19:    194.50   0.001025    5.18  0.001645  (-0.033909  0.012378  0.018501)
 20:    223.67   0.000295    1.49  0.000412  ( 0.018560 -0.003136 -0.007611)
 21:    235.68   0.002333   11.79  0.003090  ( 0.018497  0.015326 -0.050126)
 22:    248.42   0.006831   34.52  0.008581  ( 0.084658  0.010205  0.036189)
 23:    256.74   0.022750  114.97  0.027652  (-0.115839 -0.112704 -0.039130)
 24:    283.28   0.001758    8.88  0.001937  (-0.037457  0.009349 -0.021124)
 25:    304.37   0.007393   37.36  0.007580  ( 0.019237  0.067554 -0.051438)
 26:    310.39   0.019884  100.49  0.019992  ( 0.015631 -0.117689  0.076789)
 27:    322.92   0.004457   22.53  0.004307  ( 0.053726  0.037457 -0.004237)
 28:    340.67   0.002203   11.13  0.002018  (-0.013808 -0.031869  0.028494)
 29:    351.65   0.006728   34.00  0.005970  ( 0.055018 -0.013513 -0.052542)
 30:    386.25   0.002915   14.73  0.002355  (-0.014915  0.038504  0.025494)
 31:    397.38   0.003312   16.74  0.002601  ( 0.024383  0.039909 -0.020343)
 32:    421.78   0.015299   77.31  0.011319  ( 0.098303  0.020689 -0.035037)
 33:    423.84   0.007200   36.39  0.005301  ( 0.011196 -0.013164 -0.070729)
 34:    437.78   0.012241   61.86  0.008726  (-0.044873  0.070435  0.041843)
 35:    445.39   0.023771  120.13  0.016655  (-0.053008 -0.089651 -0.076209)
 36:    473.00   0.071423  360.94  0.047121  (-0.170177  0.106232  0.082919)
 37:    497.59   0.004596   23.23  0.002882  (-0.020389  0.049481 -0.004278)
 38:    530.24   0.018042   91.18  0.010618  ( 0.077500 -0.065984  0.016068)
 39:    548.67   0.001685    8.52  0.000959  (-0.010302 -0.006887  0.028373)
 40:    556.84   0.022896  115.71  0.012832  ( 0.083107 -0.035115  0.068496)
 41:    611.68   0.016746   84.63  0.008543  (-0.018749  0.067931 -0.059810)
 42:    703.45   0.013853   70.01  0.006146  (-0.072106 -0.030526 -0.003810)
 43:    755.98   0.003887   19.64  0.001605  (-0.032792 -0.017066 -0.015428)
 44:    768.46   0.017079   86.31  0.006936  (-0.042897 -0.051682  0.049239)
 45:    805.38   0.022252  112.45  0.008622  ( 0.077153  0.031357 -0.041063)
 46:    822.12   0.036908  186.52  0.014010  ( 0.069155  0.090390  0.032509)
 47:    882.47   0.015785   79.77  0.005582  ( 0.013836  0.063592  0.036696)
 48:    886.36   0.080534  406.99  0.028354  (-0.024410  0.088160  0.141372)
 49:    902.93   0.023905  120.81  0.008262  (-0.013722  0.081413 -0.038019)
 50:    908.11   0.020573  103.97  0.007070  (-0.045950 -0.055914  0.042802)
 51:    924.90   0.000965    4.88  0.000326  (-0.007373 -0.011310  0.011973)
 52:    932.80   0.014629   73.93  0.004894  ( 0.043255  0.026151 -0.048364)
 53:    965.80   0.010131   51.20  0.003273  ( 0.037804  0.042920 -0.001463)
 54:   1046.96   0.009887   49.97  0.002947  ( 0.036994 -0.021945 -0.033120)
 55:   1050.01   0.003412   17.24  0.001014  (-0.017467 -0.003929  0.026333)
 56:   1057.35   0.055747  281.72  0.016453  (-0.116496 -0.013896 -0.051851)
 57:   1075.15   0.006006   30.35  0.001743  (-0.003702 -0.032741  0.025643)
 58:   1080.90   0.013187   66.64  0.003807  (-0.054660  0.026671 -0.010394)
 59:   1093.88   0.011024   55.71  0.003145  ( 0.027700 -0.037970 -0.030594)
 60:   1119.64   0.021122  106.74  0.005887  ( 0.061016  0.038693 -0.025827)
 61:   1131.48   0.006614   33.42  0.001824  (-0.009328 -0.016876  0.038109)
 62:   1133.37   0.012533   63.34  0.003451  ( 0.003178  0.053866  0.023219)
 63:   1155.03   0.007315   36.97  0.001976  (-0.002099 -0.030874  0.031918)
 64:   1166.12   0.002558   12.93  0.000685  (-0.008775  0.024201 -0.004684)
 65:   1179.00   0.000036    0.18  0.000010  ( 0.002715 -0.001452 -0.000412)
 66:   1183.63   0.015247   77.05  0.004020  (-0.012723 -0.033336  0.052409)
 67:   1208.04   0.016625   84.01  0.004294  ( 0.065198 -0.001606 -0.006418)
 68:   1214.27   0.000767    3.88  0.000197  ( 0.011456  0.004053 -0.007033)
 69:   1238.86   0.008674   43.84  0.002185  (-0.023632  0.018068  0.036057)
 70:   1248.91   0.011918   60.23  0.002978  (-0.017040 -0.047977 -0.019639)
 71:   1275.10   0.002121   10.72  0.000519  (-0.011303  0.006577 -0.018659)
 72:   1279.46   0.029193  147.53  0.007120  ( 0.063310  0.055680  0.003438)
 73:   1293.21   0.002590   13.09  0.000625  ( 0.020541 -0.003471  0.013822)
 74:   1318.95   0.076701  387.61  0.018147  (-0.072309  0.065642 -0.092790)
 75:   1319.97   0.021738  109.86  0.005139  ( 0.068000 -0.020372  0.010017)
 76:   1327.43   0.007200   36.39  0.001693  (-0.039854 -0.004585  0.009129)
 77:   1327.99   0.013453   67.99  0.003161  (-0.003331  0.048701  0.027902)
 78:   1336.56   0.010359   52.35  0.002419  ( 0.009956  0.037224  0.030561)
 79:   1348.08   0.005508   27.83  0.001275  (-0.003054  0.012780  0.033202)
 80:   1352.07   0.007288   36.83  0.001682  ( 0.010495  0.015555 -0.036469)
 81:   1420.25   0.001162    5.87  0.000255  (-0.013322  0.001747 -0.008651)
 82:   1455.34   0.002055   10.38  0.000441  ( 0.006912 -0.019809  0.000644)
 83:   1731.91   0.050765  256.55  0.009147  (-0.030984 -0.047053 -0.077286)
 84:   2855.62   0.016411   82.94  0.001793  (-0.016690  0.027875  0.027164)
 85:   2866.38   0.003790   19.15  0.000413  ( 0.001112  0.019923 -0.003806)
 86:   2898.37   0.005669   28.65  0.000610  (-0.000404 -0.020590  0.013648)
 87:   2903.12   0.000972    4.91  0.000104  (-0.002836  0.009706  0.001480)
 88:   2954.25   0.007169   36.23  0.000757  (-0.001253 -0.016609  0.021905)
 89:   2964.33   0.013076   66.08  0.001377  ( 0.003566  0.030288 -0.021130)
 90:   2970.31   0.002522   12.74  0.000265  (-0.011989  0.010422 -0.003547)
 91:   2974.07   0.005444   27.51  0.000571  ( 0.000080 -0.023790 -0.002298)
 92:   3386.16   0.018185   91.90  0.001676  ( 0.034960 -0.010013 -0.018798)
 93:   3403.03   0.024300  122.80  0.002228  (-0.044091 -0.011361 -0.012460)
 94:   3408.93   0.007635   38.58  0.000699  ( 0.019591  0.005955  0.016723)
 95:   3483.96   0.008980   45.38  0.000804  (-0.000714 -0.016115  0.023327)
 96:   3529.81   0.010606   53.60  0.000938  ( 0.023507  0.011263  0.016069)
 97:   3601.18   0.007954   40.20  0.000689  (-0.015596  0.019892 -0.007097)
 98:   3641.53   0.018049   91.21  0.001547  ( 0.035845 -0.000258 -0.016182)

* The epsilon (eps) is given for a Dirac delta lineshape.
** The dipole moment derivative (T) already includes vibrational overlap.

The first frequency considered to be a vibration is 6
The total number of vibrations considered is 93


--------------------------
THERMOCHEMISTRY AT 298.15K
--------------------------

Temperature         ... 298.15 K
Pressure            ... 1.00 atm
Total Mass          ... 290.16 AMU

Throughout the following assumptions are being made:
  (1) The electronic state is orbitally nondegenerate
  (2) There are no thermally accessible electronically excited states
  (3) Hindered rotations indicated by low frequency modes are not
      treated as such but are treated as vibrations and this may
      cause some error
  (4) All equations used are the standard statistical mechanics
      equations for an ideal gas
  (5) All vibrations are strictly harmonic

freq.      13.84  E(vib)   ...       0.57 
freq.      18.10  E(vib)   ...       0.57 
freq.      25.40  E(vib)   ...       0.56 
freq.      35.70  E(vib)   ...       0.54 
freq.      45.25  E(vib)   ...       0.53 
freq.      63.69  E(vib)   ...       0.51 
freq.      87.88  E(vib)   ...       0.48 
freq.      95.64  E(vib)   ...       0.47 
freq.     112.50  E(vib)   ...       0.45 
freq.     124.15  E(vib)   ...       0.43 
freq.     157.66  E(vib)   ...       0.40 
freq.     170.78  E(vib)   ...       0.38 
freq.     182.89  E(vib)   ...       0.37 
freq.     194.50  E(vib)   ...       0.36 
freq.     223.67  E(vib)   ...       0.33 
freq.     235.68  E(vib)   ...       0.32 
freq.     248.42  E(vib)   ...       0.31 
freq.     256.74  E(vib)   ...       0.30 
freq.     283.28  E(vib)   ...       0.28 
freq.     304.37  E(vib)   ...       0.26 
freq.     310.39  E(vib)   ...       0.26 
freq.     322.92  E(vib)   ...       0.25 
freq.     340.67  E(vib)   ...       0.23 
freq.     351.65  E(vib)   ...       0.23 
freq.     386.25  E(vib)   ...       0.20 
freq.     397.38  E(vib)   ...       0.20 
freq.     421.78  E(vib)   ...       0.18 
freq.     423.84  E(vib)   ...       0.18 
freq.     437.78  E(vib)   ...       0.17 
freq.     445.39  E(vib)   ...       0.17 
freq.     473.00  E(vib)   ...       0.15 
freq.     497.59  E(vib)   ...       0.14 
freq.     530.24  E(vib)   ...       0.13 
freq.     548.67  E(vib)   ...       0.12 
freq.     556.84  E(vib)   ...       0.12 
freq.     611.68  E(vib)   ...       0.10 
freq.     703.45  E(vib)   ...       0.07 
freq.     755.98  E(vib)   ...       0.06 
freq.     768.46  E(vib)   ...       0.06 
freq.     805.38  E(vib)   ...       0.05 
freq.     822.12  E(vib)   ...       0.05 
freq.     882.47  E(vib)   ...       0.04 
freq.     886.36  E(vib)   ...       0.04 
freq.     902.93  E(vib)   ...       0.03 
freq.     908.11  E(vib)   ...       0.03 
freq.     924.90  E(vib)   ...       0.03 
freq.     932.80  E(vib)   ...       0.03 
freq.     965.80  E(vib)   ...       0.03 
freq.    1046.96  E(vib)   ...       0.02 
freq.    1050.01  E(vib)   ...       0.02 
freq.    1057.35  E(vib)   ...       0.02 
freq.    1075.15  E(vib)   ...       0.02 
freq.    1080.90  E(vib)   ...       0.02 
freq.    1093.88  E(vib)   ...       0.02 
freq.    1119.64  E(vib)   ...       0.01 
freq.    1131.48  E(vib)   ...       0.01 
freq.    1133.37  E(vib)   ...       0.01 
freq.    1155.03  E(vib)   ...       0.01 
freq.    1166.12  E(vib)   ...       0.01 
freq.    1179.00  E(vib)   ...       0.01 
freq.    1183.63  E(vib)   ...       0.01 
freq.    1208.04  E(vib)   ...       0.01 
freq.    1214.27  E(vib)   ...       0.01 
freq.    1238.86  E(vib)   ...       0.01 
freq.    1248.91  E(vib)   ...       0.01 
freq.    1275.10  E(vib)   ...       0.01 
freq.    1279.46  E(vib)   ...       0.01 
freq.    1293.21  E(vib)   ...       0.01 
freq.    1318.95  E(vib)   ...       0.01 
freq.    1319.97  E(vib)   ...       0.01 
freq.    1327.43  E(vib)   ...       0.01 
freq.    1327.99  E(vib)   ...       0.01 
freq.    1336.56  E(vib)   ...       0.01 
freq.    1348.08  E(vib)   ...       0.01 
freq.    1352.07  E(vib)   ...       0.01 
freq.    1420.25  E(vib)   ...       0.00 
freq.    1455.34  E(vib)   ...       0.00 
freq.    1731.91  E(vib)   ...       0.00 
freq.    2855.62  E(vib)   ...       0.00 
freq.    2866.38  E(vib)   ...       0.00 
freq.    2898.37  E(vib)   ...       0.00 
freq.    2903.12  E(vib)   ...       0.00 
freq.    2954.25  E(vib)   ...       0.00 
freq.    2964.33  E(vib)   ...       0.00 
freq.    2970.31  E(vib)   ...       0.00 
freq.    2974.07  E(vib)   ...       0.00 
freq.    3386.16  E(vib)   ...       0.00 
freq.    3403.03  E(vib)   ...       0.00 
freq.    3408.93  E(vib)   ...       0.00 
freq.    3483.96  E(vib)   ...       0.00 
freq.    3529.81  E(vib)   ...       0.00 
freq.    3601.18  E(vib)   ...       0.00 
freq.    3641.53  E(vib)   ...       0.00 

------------
INNER ENERGY
------------

The inner energy is: U= E(el) + E(ZPE) + E(vib) + E(rot) + E(trans)
    E(el)   - is the total energy from the electronic structure calculation
              = E(kin-el) + E(nuc-el) + E(el-el) + E(nuc-nuc)
    E(ZPE)  - the the zero temperature vibrational energy from the frequency calculation
    E(vib)  - the the finite temperature correction to E(ZPE) due to population
              of excited vibrational states
    E(rot)  - is the rotational thermal energy
    E(trans)- is the translational thermal energy

Summary of contributions to the inner energy U:
Electronic energy                ...    -65.94062518 Eh
Zero point energy                ...      0.23967446 Eh     150.40 kcal/mol
Thermal vibrational correction   ...      0.01915015 Eh      12.02 kcal/mol
Thermal rotational correction    ...      0.00141627 Eh       0.89 kcal/mol
Thermal translational correction ...      0.00141627 Eh       0.89 kcal/mol
-----------------------------------------------------------------------
Total thermal energy                    -65.67896803 Eh


Summary of corrections to the electronic energy:
(perhaps to be used in another calculation)
Total thermal correction                  0.02198270 Eh      13.79 kcal/mol
Non-thermal (ZPE) correction              0.23967446 Eh     150.40 kcal/mol
-----------------------------------------------------------------------
Total correction                          0.26165716 Eh     164.19 kcal/mol


--------
ENTHALPY
--------

The enthalpy is H = U + kB*T
                kB is Boltzmann's constant
Total free energy                 ...    -65.67896803 Eh 
Thermal Enthalpy correction       ...      0.00094421 Eh       0.59 kcal/mol
-----------------------------------------------------------------------
Total Enthalpy                    ...    -65.67802382 Eh


Note: Only C1 symmetry has been detected, increase convergence thresholds 
      if your molecule has a higher symmetry. Symmetry factor of 1.0 is   
      used for the rotational entropy correction. 
 

Note: Rotational entropy computed according to Herzberg 
Infrared and Raman Spectra, Chapter V,1, Van Nostrand Reinhold, 1945 
Point Group:  C1, Symmetry Number:   1  
Rotational constants in cm-1:     0.028094     0.004642     0.004383 

Vibrational entropy computed according to the QRRHO of S. Grimme
Chem.Eur.J. 2012 18 9955


-------
ENTROPY
-------

The entropy contributions are T*S = T*(S(el)+S(vib)+S(rot)+S(trans))
     S(el)   - electronic entropy
     S(vib)  - vibrational entropy
     S(rot)  - rotational entropy
     S(trans)- translational entropy
The entropies will be listed as multiplied by the temperature to get
units of energy

Electronic entropy                ...      0.00000000 Eh      0.00 kcal/mol
Vibrational entropy               ...      0.03510812 Eh     22.03 kcal/mol
Rotational entropy                ...      0.01629706 Eh     10.23 kcal/mol
Translational entropy             ...      0.02037995 Eh     12.79 kcal/mol
-----------------------------------------------------------------------
Final entropy term                ...      0.07178512 Eh     45.05 kcal/mol

In case the symmetry of your molecule has not been determined correctly
or in case you have a reason to use a different symmetry number we print 
out the resulting rotational entropy values for sn=1,12 :
 --------------------------------------------------------
|  sn= 1 | S(rot)=       0.01629706 Eh     10.23 kcal/mol|
|  sn= 2 | S(rot)=       0.01564260 Eh      9.82 kcal/mol|
|  sn= 3 | S(rot)=       0.01525977 Eh      9.58 kcal/mol|
|  sn= 4 | S(rot)=       0.01498814 Eh      9.41 kcal/mol|
|  sn= 5 | S(rot)=       0.01477746 Eh      9.27 kcal/mol|
|  sn= 6 | S(rot)=       0.01460531 Eh      9.16 kcal/mol|
|  sn= 7 | S(rot)=       0.01445977 Eh      9.07 kcal/mol|
|  sn= 8 | S(rot)=       0.01433369 Eh      8.99 kcal/mol|
|  sn= 9 | S(rot)=       0.01422248 Eh      8.92 kcal/mol|
|  sn=10 | S(rot)=       0.01412300 Eh      8.86 kcal/mol|
|  sn=11 | S(rot)=       0.01403301 Eh      8.81 kcal/mol|
|  sn=12 | S(rot)=       0.01395086 Eh      8.75 kcal/mol|
 --------------------------------------------------------


-------------------
GIBBS FREE ENERGY
-------------------

The Gibbs free energy is G = H - T*S

Total enthalpy                    ...    -65.67802382 Eh 
Total entropy correction          ...     -0.07178512 Eh    -45.05 kcal/mol
-----------------------------------------------------------------------
Final Gibbs free energy         ...    -65.74980894 Eh

For completeness - the Gibbs free energy minus the electronic energy
G-E(el)                           ...      0.19081624 Eh    119.74 kcal/mol



Timings for individual modules:

Sum of individual times         ...      486.832 sec (=   8.114 min)
Geometry relaxation             ...        0.897 sec (=   0.015 min)   0.2 %
Numerical frequency calculation ...      485.136 sec (=   8.086 min)  99.7 %
XTB module                      ...        0.799 sec (=   0.013 min)   0.2 %
                             ****ORCA TERMINATED NORMALLY****
TOTAL RUN TIME: 0 days 0 hours 8 minutes 7 seconds 546 msec
