
                                 *****************
                                 * O   R   C   A *
                                 *****************

                                            #,                                       
                                            ###                                      
                                            ####                                     
                                            #####                                    
                                            ######                                   
                                           ########,                                 
                                     ,,################,,,,,                         
                               ,,#################################,,                 
                          ,,##########################################,,             
                       ,#########################################, ''#####,          
                    ,#############################################,,   '####,        
                  ,##################################################,,,,####,       
                ,###########''''           ''''###############################       
              ,#####''   ,,,,##########,,,,          '''####'''          '####       
            ,##' ,,,,###########################,,,                        '##       
           ' ,,###''''                  '''############,,,                           
         ,,##''                                '''############,,,,        ,,,,,,###''
      ,#''                                            '''#######################'''  
     '                                                          ''''####''''         
             ,#######,   #######,   ,#######,      ##                                
            ,#'     '#,  ##    ##  ,#'     '#,    #''#        ######   ,####,        
            ##       ##  ##   ,#'  ##            #'  '#       #        #'  '#        
            ##       ##  #######   ##           ,######,      #####,   #    #        
            '#,     ,#'  ##    ##  '#,     ,#' ,#      #,         ##   #,  ,#        
             '#######'   ##     ##  '#######'  #'      '#     #####' # '####'        



                  #######################################################
                  #                        -***-                        #
                  #          Department of theory and spectroscopy      #
                  #    Directorship and core code : Frank Neese         #
                  #        Max Planck Institute fuer Kohlenforschung    #
                  #                Kaiser Wilhelm Platz 1               #
                  #                 D-45470 Muelheim/Ruhr               #
                  #                      Germany                        #
                  #                                                     #
                  #                  All rights reserved                #
                  #                        -***-                        #
                  #######################################################


                         Program Version 5.0.3 -  RELEASE  -


 With contributions from (in alphabetic order):
   Daniel Aravena         : Magnetic Suceptibility
   Michael Atanasov       : Ab Initio Ligand Field Theory (pilot matlab implementation)
   Alexander A. Auer      : GIAO ZORA, VPT2 properties, NMR spectrum
   Ute Becker             : Parallelization
   Giovanni Bistoni       : ED, misc. LED, open-shell LED, HFLD
   Martin Brehm           : Molecular dynamics
   Dmytro Bykov           : SCF Hessian
   Vijay G. Chilkuri      : MRCI spin determinant printing, contributions to CSF-ICE
   Dipayan Datta          : RHF DLPNO-CCSD density
   Achintya Kumar Dutta   : EOM-CC, STEOM-CC
   Dmitry Ganyushin       : Spin-Orbit,Spin-Spin,Magnetic field MRCI
   Miquel Garcia          : C-PCM and meta-GGA Hessian, CC/C-PCM, Gaussian charge scheme
   Yang Guo               : DLPNO-NEVPT2, F12-NEVPT2, CIM, IAO-localization
   Andreas Hansen         : Spin unrestricted coupled pair/coupled cluster methods
   Benjamin Helmich-Paris : MC-RPA, TRAH-SCF, COSX integrals
   Lee Huntington         : MR-EOM, pCC
   Robert Izsak           : Overlap fitted RIJCOSX, COSX-SCS-MP3, EOM
   Marcus Kettner         : VPT2
   Christian Kollmar      : KDIIS, OOCD, Brueckner-CCSD(T), CCSD density, CASPT2, CASPT2-K
   Simone Kossmann        : Meta GGA functionals, TD-DFT gradient, OOMP2, MP2 Hessian
   Martin Krupicka        : Initial AUTO-CI
   Lucas Lang             : DCDCAS
   Marvin Lechner         : AUTO-CI (C++ implementation), FIC-MRCC
   Dagmar Lenk            : GEPOL surface, SMD
   Dimitrios Liakos       : Extrapolation schemes; Compound Job, initial MDCI parallelization
   Dimitrios Manganas     : Further ROCIS development; embedding schemes
   Dimitrios Pantazis     : SARC Basis sets
   Anastasios Papadopoulos: AUTO-CI, single reference methods and gradients
   Taras Petrenko         : DFT Hessian,TD-DFT gradient, ASA, ECA, R-Raman, ABS, FL, XAS/XES, NRVS
   Peter Pinski           : DLPNO-MP2, DLPNO-MP2 Gradient
   Christoph Reimann      : Effective Core Potentials
   Marius Retegan         : Local ZFS, SOC
   Christoph Riplinger    : Optimizer, TS searches, QM/MM, DLPNO-CCSD(T), (RO)-DLPNO pert. Triples
   Tobias Risthaus        : Range-separated hybrids, TD-DFT gradient, RPA, STAB
   Michael Roemelt        : Original ROCIS implementation
   Masaaki Saitow         : Open-shell DLPNO-CCSD energy and density
   Barbara Sandhoefer     : DKH picture change effects
   Avijit Sen             : IP-ROCIS
   Kantharuban Sivalingam : CASSCF convergence, NEVPT2, FIC-MRCI
   Bernardo de Souza      : ESD, SOC TD-DFT
   Georgi Stoychev        : AutoAux, RI-MP2 NMR, DLPNO-MP2 response
   Willem Van den Heuvel  : Paramagnetic NMR
   Boris Wezisla          : Elementary symmetry handling
   Frank Wennmohs         : Technical directorship


 We gratefully acknowledge several colleagues who have allowed us to
 interface, adapt or use parts of their codes:
   Stefan Grimme, W. Hujo, H. Kruse, P. Pracht,  : VdW corrections, initial TS optimization,
                  C. Bannwarth, S. Ehlert          DFT functionals, gCP, sTDA/sTD-DF
   Ed Valeev, F. Pavosevic, A. Kumar             : LibInt (2-el integral package), F12 methods
   Garnet Chan, S. Sharma, J. Yang, R. Olivares  : DMRG
   Ulf Ekstrom                                   : XCFun DFT Library
   Mihaly Kallay                                 : mrcc  (arbitrary order and MRCC methods)
   Jiri Pittner, Ondrej Demel                    : Mk-CCSD
   Frank Weinhold                                : gennbo (NPA and NBO analysis)
   Christopher J. Cramer and Donald G. Truhlar   : smd solvation model
   Lars Goerigk                                  : TD-DFT with DH, B97 family of functionals
   V. Asgeirsson, H. Jonsson                     : NEB implementation
   FAccTs GmbH                                   : IRC, NEB, NEB-TS, DLPNO-Multilevel, CI-OPT
                                                   MM, QMMM, 2- and 3-layer-ONIOM, Crystal-QMMM,
                                                   LR-CPCM, SF, NACMEs, symmetry and pop. for TD-DFT,
                                                   nearIR, NL-DFT gradient (VV10), updates on ESD,
                                                   ML-optimized integration grids
   S Lehtola, MJT Oliveira, MAL Marques          : LibXC Library
   Liviu Ungur et al                             : ANISO software


 Your calculation uses the libint2 library for the computation of 2-el integrals
 For citations please refer to: http://libint.valeyev.net

 Your ORCA version has been built with support for libXC version: 5.1.0
 For citations please refer to: https://tddft.org/programs/libxc/

 This ORCA versions uses:
   CBLAS   interface :  Fast vector & matrix operations
   LAPACKE interface :  Fast linear algebra routines
   SCALAPACK package :  Parallel linear algebra routines
   Shared memory     :  Shared parallel matrices
   BLAS/LAPACK       :  OpenBLAS 0.3.15  USE64BITINT DYNAMIC_ARCH NO_AFFINITY Haswell SINGLE_THREADED
        Core in use  :  Haswell
   Copyright (c) 2011-2014, The OpenBLAS Project


Your calculation utilizes the semiempirical GFN2-xTB method
Please cite in your paper:
C. Bannwarth, Ehlert S., S. Grimme,  J. Chem. Theory Comput., 15, (2019), 1652.
   

================================================================================

================================================================================
                                        WARNINGS
                       Please study these warnings very carefully!
================================================================================


WARNING: Geometry Optimization
  ===> : Switching off AutoStart
         For restart on a previous wavefunction, please use MOREAD

WARNING: Found dipole moment calculation with XTB calculation
  ===> : Switching off dipole moment calculation


WARNING: TRAH-SCF for XTB is not implemented!
  ===> : Turning TRAH off!

================================================================================
                                       INPUT FILE
================================================================================
NAME = /tmp/12.inp
|  1> ! XTB2 opt numfreq
|  2> * xyz 0 1
|  3> N 6.661709 6.067036 -2.434965
|  4> C 6.179628 4.847360 -2.731294
|  5> N 6.628246 4.231815 -3.831143
|  6> C 6.140846 3.039138 -4.142241
|  7> N 5.232234 2.321037 -3.501213
|  8> C 4.789021 2.929715 -2.400057
|  9> C 5.209411 4.191136 -1.946938
| 10> N 4.533138 4.512664 -.792857
| 11> C 3.754771 3.500439 -.562211
| 12> N 3.858091 2.497280 -1.492928
| 13> C 3.162021 1.247416 -1.561152
| 14> O 1.768043 1.443028 -1.472446
| 15> C 1.202515 .643775 -.444882
| 16> C .914867 1.474152 .814392
| 17> O -.009780 .818926 1.672581
| 18> P .480759 -.331943 2.645198
| 19> O 1.889319 -.275531 3.014763
| 20> O -.555074 -.223773 3.841418
| 21> O -.038005 -1.694971 2.005972
| 22> P .736572 -3.000285 1.472624
| 23> O 2.170277 -3.026461 1.751747
| 24> O .327595 -3.111506 -.029197
| 25> O -.058280 -4.181335 2.176156
| 26> C -1.433246 -4.056786 2.506999
| 27> C -2.386213 -4.921271 1.653716
| 28> O -3.715261 -4.422359 1.768814
| 29> C -3.917948 -3.399378 .833183
| 30> N -3.931234 -2.080938 1.479594
| 31> C -3.920181 -2.013326 2.826071
| 32> C -3.980066 -.848050 3.523512
| 33> C -3.948252 .371462 2.806009
| 34> C -4.010538 .338071 1.457002
| 35> C -3.702803 1.537775 .569431
| 36> N -2.567900 2.278968 1.041020
| 37> O -4.782527 2.439848 .480006
| 38> C -3.378190 .893187 -.813460
| 39> O -4.578405 .855515 -1.567791
| 40> C -2.897540 -.558956 -.509602
| 41> O -1.698878 -.697909 -.074900
| 42> C -2.298749 1.645115 -1.586255
| 43> O -2.719598 2.962810 -1.848370
| 44> P -2.081320 4.173555 -.979796
| 45> O -.773305 3.887931 -.378017
| 46> O -3.265598 4.742578 -.112622
| 47> O -2.013596 5.323552 -2.077738
| 48> C -4.073223 -.910669 .688500
| 49> C -2.802368 -3.550633 -.251983
| 50> O -3.318611 -3.569702 -1.542464
| 51> C -2.108878 -4.867905 .148743
| 52> O -2.758833 -5.917437 -.535668
| 53> C 2.218679 -.470206 -.203031
| 54> O 2.015205 -1.478406 -1.168138
| 55> C 3.546381 .264045 -.428675
| 56> O 4.609006 -.555888 -.822546
| 57> P 5.112492 -1.857031 -.004720
| 58> O 6.542204 -2.058159 -.153392
| 59> O 4.552672 -1.725786 1.454387
| 60> O 4.246678 -3.044138 -.698304
| 61> H 6.362382 6.521405 -1.591981
| 62> H 7.381550 6.468016 -3.017994
| 63> H 6.541554 2.597151 -5.045220
| 64> H 3.064426 3.444598 .257420
| 65> H 3.425935 .807803 -2.535561
| 66> H .255754 .222663 -.804818
| 67> H .443012 2.418891 .514915
| 68> H 1.836406 1.660344 1.373742
| 69> H -.134069 .191137 4.595127
| 70> H .817705 -2.480148 -.613022
| 71> H -1.725640 -3.012312 2.406770
| 72> H -1.530067 -4.356813 3.555460
| 73> H -2.410772 -5.950539 2.024414
| 74> H -4.905933 -3.548291 .368443
| 75> H -3.898682 -2.966664 3.330464
| 76> H -4.002533 -.858735 4.598651
| 77> H -3.882050 1.308717 3.335908
| 78> H -1.768531 1.666253 1.168197
| 79> H -2.774555 2.737348 1.921183
| 80> H -5.322335 2.143966 -.274037
| 81> H -4.481181 1.477897 -2.300976
| 82> H -3.189405 -1.210732 -1.355325
| 83> H -1.365636 1.655958 -1.025870
| 84> H -2.140034 1.144487 -2.548018
| 85> H -3.821155 4.033362 .247406
| 86> H -1.109764 5.419179 -2.375158
| 87> H -4.940829 -.986416 .021751
| 88> H -2.081633 -2.731959 -.173422
| 89> H -3.566837 -4.485661 -1.742103
| 90> H -1.042390 -4.851110 -.079412
| 91> H -2.282206 -6.740044 -.389572
| 92> H 2.156807 -.872139 .808201
| 93> H 2.803833 -2.050355 -1.188748
| 94> H 3.819083 .815173 .479237
| 95> H 3.723037 -2.192766 1.670638
| 96> H 4.858854 -3.717627 -.997831
| 97> *
| 98> 
| 99>                          ****END OF INPUT****
================================================================================

                       *****************************
                       * Geometry Optimization Run *
                       *****************************

Geometry optimization settings:
Update method            Update   .... BFGS
Choice of coordinates    CoordSys .... Z-matrix Internals
Initial Hessian          InHess   .... Almoef's Model

Convergence Tolerances:
Energy Change            TolE     ....  5.0000e-06 Eh
Max. Gradient            TolMAXG  ....  3.0000e-04 Eh/bohr
RMS Gradient             TolRMSG  ....  1.0000e-04 Eh/bohr
Max. Displacement        TolMAXD  ....  4.0000e-03 bohr
RMS Displacement         TolRMSD  ....  2.0000e-03 bohr
Strict Convergence                ....  False
------------------------------------------------------------------------------
                        ORCA OPTIMIZATION COORDINATE SETUP
------------------------------------------------------------------------------

The optimization will be done in new redundant internal coordinates
Making redundant internal coordinates   ...  (new redundants) done
Evaluating the initial hessian          ...  (Almloef) done
Evaluating the coordinates              ...  done
Calculating the B-matrix                .... done
Calculating the G-matrix                .... done
Diagonalizing the G-matrix              .... done
Small eigenvalue found = 7.877e-04
Small eigenvalue found = 1.095e-03
Small eigenvalue found = 1.981e-03
Small eigenvalue found = 3.945e-03
Small eigenvalue found = 6.084e-03
Small eigenvalue found = 6.794e-03
Small eigenvalue found = 7.941e-03
Small eigenvalue found = 8.273e-03
Small eigenvalue found = 1.144e-02
Small eigenvalue found = 1.569e-02
Small eigenvalue found = 1.709e-02
Small eigenvalue found = 1.773e-02
Small eigenvalue found = 2.198e-02
Small eigenvalue found = 2.444e-02
The first mode is                       ....  270
The number of degrees of freedom        ....  276

    -----------------------------------------------------------------
                    Redundant Internal Coordinates


    -----------------------------------------------------------------
         Definition                    Initial Value    Approx d2E/dq
    -----------------------------------------------------------------
      1. B(C   1,N   0)                  1.3446         0.661277   
      2. B(N   2,C   1)                  1.3378         0.677782   
      3. B(C   3,N   2)                  1.3255         0.709349   
      4. B(N   4,C   3)                  1.3237         0.713945   
      5. B(C   5,N   4)                  1.3340         0.687497   
      6. B(C   6,C   5)                  1.4047         0.591916   
      7. B(C   6,C   1)                  1.4097         0.581244   
      8. B(N   7,C   6)                  1.3757         0.589719   
      9. B(C   8,N   7)                  1.2976         0.785893   
     10. B(N   9,C   5)                  1.3699         0.602572   
     11. B(N   9,C   8)                  1.3723         0.597169   
     12. B(C  10,N   9)                  1.4322         0.479154   
     13. B(O  11,C  10)                  1.4104         0.519139   
     14. B(C  12,O  11)                  1.4193         0.502425   
     15. B(C  13,C  12)                  1.5356         0.365981   
     16. B(O  14,C  13)                  1.4215         0.498370   
     17. B(P  15,O  14)                  1.5846         0.920067   
     18. B(O  16,P  15)                  1.4573         1.468769   
     19. B(O  17,P  15)                  1.5861         0.915303   
     20. B(O  18,P  15)                  1.5923         0.894410   
     21. B(P  19,O  18)                  1.6088         0.841918   
     22. B(O  20,P  19)                  1.4609         1.449842   
     23. B(O  21,P  19)                  1.5605         1.005493   
     24. B(O  22,P  19)                  1.5880         0.908934   
     25. B(C  23,O  22)                  1.4197         0.501785   
     26. B(C  24,C  23)                  1.5439         0.355001   
     27. B(O  25,C  24)                  1.4243         0.493411   
     28. B(C  26,O  25)                  1.4011         0.537310   
     29. B(N  27,C  26)                  1.4684         0.419502   
     30. B(C  28,N  27)                  1.3482         0.652431   
     31. B(C  29,C  28)                  1.3594         0.699217   
     32. B(C  30,C  29)                  1.4153         0.569374   
     33. B(C  31,C  30)                  1.3509         0.721421   
     34. B(C  32,C  31)                  1.5237         0.382270   
     35. B(N  33,C  32)                  1.4352         0.474001   
     36. B(O  34,C  32)                  1.4098         0.520338   
     37. B(C  35,C  32)                  1.5599         0.334727   
     38. B(O  36,C  35)                  1.4181         0.504749   
     39. B(C  37,C  35)                  1.5595         0.335193   
     40. B(O  38,C  37)                  1.2826         0.830280   
     41. B(C  39,C  35)                  1.5257         0.379504   
     42. B(O  40,C  39)                  1.4079         0.524013   
     43. B(P  41,O  40)                  1.6210         0.804977   
     44. B(O  42,O  11)                  3.6924         0.000106   
     45. B(O  42,P  41)                  1.4679         1.413005   
     46. B(O  43,P  41)                  1.5743         0.955863   
     47. B(O  44,P  41)                  1.5914         0.897527   
     48. B(C  45,C  37)                  1.7150         0.189299   
     49. B(C  45,C  31)                  1.4676         0.469806   
     50. B(C  45,N  27)                  1.4197         0.501772   
     51. B(C  46,C  26)                  1.5636         0.330142   
     52. B(O  47,C  46)                  1.3900         0.559515   
     53. B(C  48,C  46)                  1.5417         0.357911   
     54. B(C  48,C  24)                  1.5312         0.371872   
     55. B(O  49,C  48)                  1.4115         0.517069   
     56. B(C  50,C  12)                  1.5271         0.377576   
     57. B(O  51,C  50)                  1.4104         0.519144   
     58. B(C  52,C  50)                  1.5339         0.368268   
     59. B(C  52,C  10)                  1.5483         0.349277   
     60. B(O  53,C  52)                  1.3988         0.541828   
     61. B(P  54,O  53)                  1.6172         0.816392   
     62. B(O  55,P  54)                  1.4514         1.500967   
     63. B(O  56,P  54)                  1.5683         0.976960   
     64. B(O  57,P  54)                  1.6248         0.793944   
     65. B(H  58,N   0)                  1.0033         0.443443   
     66. B(H  59,N   0)                  1.0094         0.433670   
     67. B(H  60,C   3)                  1.0823         0.370484   
     68. B(H  61,C   8)                  1.0731         0.383201   
     69. B(H  62,C  10)                  1.1011         0.345733   
     70. B(H  63,C  12)                  1.0969         0.351054   
     71. B(H  64,C  13)                  1.0977         0.350103   
     72. B(H  65,C  13)                  1.0940         0.354884   
     73. B(H  66,O  17)                  0.9578         0.524083   
     74. B(H  67,O  38)                  3.1304         0.000179   
     75. B(H  67,O  21)                  0.9898         0.466067   
     76. B(H  68,C  23)                  1.0893         0.361093   
     77. B(H  69,C  23)                  1.0948         0.353762   
     78. B(H  70,C  24)                  1.0943         0.354504   
     79. B(H  71,C  26)                  1.1019         0.344646   
     80. B(H  72,C  28)                  1.0788         0.375277   
     81. B(H  73,C  29)                  1.0754         0.379904   
     82. B(H  74,C  30)                  1.0787         0.375345   
     83. B(H  75,O  14)                  2.0163         0.010732   
     84. B(H  75,N  33)                  1.0152         0.424556   
     85. B(H  76,N  33)                  1.0137         0.426930   
     86. B(H  77,O  34)                  0.9734         0.494969   
     87. B(H  78,O  36)                  0.9666         0.507446   
     88. B(H  79,C  37)                  1.1069         0.338414   
     89. B(H  80,C  39)                  1.0885         0.362080   
     90. B(H  81,C  39)                  1.0958         0.352491   
     91. B(H  82,O  43)                  0.9702         0.500868   
     92. B(H  83,O  44)                  0.9563         0.527066   
     93. B(H  84,C  45)                  1.0968         0.351180   
     94. B(H  85,H  63)                  3.8199         0.000003   
     95. B(H  85,C  46)                  1.0936         0.355431   
     96. B(H  86,O  47)                  0.9698         0.501626   
     97. B(H  87,C  48)                  1.0907         0.359111   
     98. B(H  88,O  49)                  0.9619         0.516391   
     99. B(H  89,C  50)                  1.0899         0.360180   
    100. B(H  90,O  38)                  4.8316         0.000000   
    101. B(H  90,O  51)                  0.9744         0.493138   
    102. B(H  91,C  52)                  1.0965         0.351544   
    103. B(H  92,O  20)                  1.7643         0.027089   
    104. B(H  92,O  56)                  0.9763         0.489765   
    105. B(H  93,O  57)                  0.9582         0.523490   
    106. A(C   1,N   0,H  59)          119.2582         0.362769   
    107. A(H  58,N   0,H  59)          121.2082         0.304557   
    108. A(C   1,N   0,H  58)          119.2753         0.364153   
    109. A(N   2,C   1,C   6)          118.2967         0.433134   
    110. A(N   0,C   1,C   6)          123.1220         0.431219   
    111. A(N   0,C   1,N   2)          118.5761         0.440415   
    112. A(C   1,N   2,C   3)          118.9249         0.446041   
    113. A(N   2,C   3,N   4)          128.8221         0.450266   
    114. A(N   2,C   3,H  60)          115.2876         0.360577   
    115. A(N   4,C   3,H  60)          115.8901         0.360975   
    116. A(C   3,N   4,C   5)          112.3512         0.447717   
    117. A(N   4,C   5,N   9)          128.9310         0.434208   
    118. A(N   4,C   5,C   6)          125.2107         0.435669   
    119. A(C   6,C   5,N   9)          105.8576         0.425476   
    120. A(C   5,C   6,N   7)          109.4728         0.423838   
    121. A(C   1,C   6,N   7)          134.1308         0.422462   
    122. A(C   1,C   6,C   5)          116.3928         0.425512   
    123. A(C   6,N   7,C   8)          105.1695         0.443087   
    124. A(N   7,C   8,H  61)          124.2139         0.369081   
    125. A(N   7,C   8,N   9)          113.8620         0.444094   
    126. A(N   9,C   8,H  61)          121.8991         0.352202   
    127. A(C   5,N   9,C  10)          125.0445         0.407121   
    128. A(C   5,N   9,C   8)          105.6357         0.423376   
    129. A(C   8,N   9,C  10)          129.3185         0.406473   
    130. A(O  11,C  10,H  62)          110.3602         0.338122   
    131. A(N   9,C  10,H  62)          105.9073         0.333643   
    132. A(O  11,C  10,C  52)          106.7044         0.377704   
    133. A(C  52,C  10,H  62)          109.5241         0.318638   
    134. A(N   9,C  10,C  52)          113.5008         0.372514   
    135. A(N   9,C  10,O  11)          110.8735         0.396569   
    136. A(C  10,O  11,C  12)          111.1759         0.399888   
    137. A(C  13,C  12,H  63)          108.3612         0.321883   
    138. A(O  11,C  12,H  63)          108.8156         0.337139   
    139. A(C  50,C  12,H  63)          110.2580         0.323532   
    140. A(O  11,C  12,C  13)          111.3356         0.378620   
    141. A(O  11,C  12,C  50)          105.0881         0.380672   
    142. A(C  13,C  12,C  50)          112.9071         0.362738   
    143. A(C  12,C  13,H  64)          108.7962         0.321740   
    144. A(O  14,C  13,H  65)          108.5241         0.337294   
    145. A(C  12,C  13,O  14)          111.5718         0.378089   
    146. A(H  64,C  13,H  65)          110.8013         0.288896   
    147. A(O  14,C  13,H  64)          106.3681         0.336533   
    148. A(C  12,C  13,H  65)          110.7039         0.322455   
    149. A(C  13,O  14,P  15)          120.2609         0.472807   
    150. A(O  17,P  15,O  18)           98.5330         0.564491   
    151. A(O  16,P  15,O  18)          116.7321         0.618212   
    152. A(O  14,P  15,O  18)          105.9280         0.565050   
    153. A(O  14,P  15,O  17)          102.1936         0.567545   
    154. A(O  14,P  15,O  16)          115.2604         0.621610   
    155. A(O  16,P  15,O  17)          115.9337         0.620985   
    156. A(P  15,O  17,H  66)          109.6309         0.423200   
    157. A(P  15,O  18,P  19)          132.1240         0.555581   
    158. A(O  20,P  19,O  21)          116.0925         0.630829   
    159. A(O  18,P  19,O  20)          115.0688         0.609487   
    160. A(O  21,P  19,O  22)          104.0159         0.576488   
    161. A(O  20,P  19,O  22)          113.1579         0.618588   
    162. A(O  18,P  19,O  21)          104.5189         0.568110   
    163. A(O  18,P  19,O  22)          102.4493         0.557286   
    164. A(P  19,O  21,H  67)          113.1063         0.421439   
    165. A(P  19,O  22,C  23)          121.5188         0.472343   
    166. A(C  24,C  23,H  69)          108.7382         0.320685   
    167. A(C  24,C  23,H  68)          108.6856         0.321763   
    168. A(H  68,C  23,H  69)          109.0961         0.290155   
    169. A(O  22,C  23,H  68)          108.8239         0.338656   
    170. A(O  22,C  23,H  69)          106.5455         0.337500   
    171. A(O  22,C  23,C  24)          114.8276         0.376547   
    172. A(O  25,C  24,C  48)          103.6639         0.378480   
    173. A(C  23,C  24,O  25)          109.5835         0.375454   
    174. A(C  23,C  24,C  48)          114.3239         0.359923   
    175. A(O  25,C  24,H  70)          106.3300         0.336672   
    176. A(C  48,C  24,H  70)          111.7032         0.323244   
    177. A(C  23,C  24,H  70)          110.6897         0.320795   
    178. A(C  24,O  25,C  26)          109.6817         0.401037   
    179. A(O  25,C  26,N  27)          111.2787         0.389784   
    180. A(N  27,C  26,C  46)          113.5036         0.360624   
    181. A(O  25,C  26,C  46)          106.8347         0.376274   
    182. A(C  46,C  26,H  71)          109.5060         0.315567   
    183. A(N  27,C  26,H  71)          107.3901         0.326221   
    184. A(O  25,C  26,H  71)          108.2208         0.339890   
    185. A(C  26,N  27,C  28)          118.9854         0.403295   
    186. A(C  28,N  27,C  45)          121.0638         0.416296   
    187. A(C  26,N  27,C  45)          119.7174         0.385161   
    188. A(N  27,C  28,C  29)          123.7126         0.444750   
    189. A(C  29,C  28,H  72)          121.2344         0.362736   
    190. A(N  27,C  28,H  72)          115.0120         0.356261   
    191. A(C  28,C  29,C  30)          118.5253         0.436815   
    192. A(C  30,C  29,H  73)          121.0551         0.351025   
    193. A(C  28,C  29,H  73)          120.3532         0.363496   
    194. A(C  29,C  30,C  31)          118.9429         0.439285   
    195. A(C  31,C  30,H  74)          120.9885         0.364691   
    196. A(C  29,C  30,H  74)          120.0673         0.350310   
    197. A(C  30,C  31,C  32)          123.5679         0.409080   
    198. A(C  32,C  31,C  45)          111.9336         0.379468   
    199. A(C  30,C  31,C  45)          123.0880         0.424372   
    200. A(O  34,C  32,C  35)          111.5646         0.375087   
    201. A(N  33,C  32,C  35)          109.8863         0.369110   
    202. A(C  31,C  32,C  35)          103.4784         0.358015   
    203. A(N  33,C  32,O  34)          107.2186         0.395977   
    204. A(C  31,C  32,O  34)          112.7096         0.383817   
    205. A(C  31,C  32,N  33)          112.0193         0.377658   
    206. A(H  75,N  33,H  76)          108.9464         0.301689   
    207. A(C  32,N  33,H  76)          110.9552         0.341997   
    208. A(C  32,N  33,H  75)          110.6176         0.341678   
    209. A(C  32,O  34,H  77)          106.2220         0.356189   
    210. A(C  37,C  35,C  39)          109.8489         0.357657   
    211. A(O  36,C  35,C  39)          110.0269         0.381313   
    212. A(C  32,C  35,C  39)          113.1175         0.357573   
    213. A(O  36,C  35,C  37)          109.8624         0.373213   
    214. A(C  32,C  35,C  37)          106.0324         0.350130   
    215. A(C  32,C  35,O  36)          107.8441         0.373124   
    216. A(C  35,O  36,H  78)          107.5321         0.355856   
    217. A(C  35,C  37,O  38)          117.0617         0.407102   
    218. A(C  45,C  37,H  79)          103.4290         0.287944   
    219. A(O  38,C  37,H  79)          116.2047         0.364719   
    220. A(O  38,C  37,C  45)          112.4369         0.368513   
    221. A(C  35,C  37,H  79)          108.5513         0.315410   
    222. A(C  35,C  37,C  45)           96.6493         0.318525   
    223. A(C  35,C  39,O  40)          110.1256         0.383802   
    224. A(O  40,C  39,H  80)          110.0459         0.341273   
    225. A(H  80,C  39,H  81)          109.4043         0.290116   
    226. A(O  40,C  39,H  81)          107.9076         0.339745   
    227. A(C  35,C  39,H  81)          108.7760         0.324020   
    228. A(C  35,C  39,H  80)          110.5267         0.325452   
    229. A(C  39,O  40,P  41)          118.7897         0.465625   
    230. A(O  42,P  41,O  43)          120.9880         0.621546   
    231. A(O  40,P  41,O  43)          105.5997         0.557866   
    232. A(O  40,P  41,O  42)          115.1636         0.601235   
    233. A(O  43,P  41,O  44)           98.6765         0.569559   
    234. A(O  42,P  41,O  44)          112.6772         0.614009   
    235. A(O  40,P  41,O  44)          100.7672         0.551231   
    236. A(P  41,O  43,H  82)          111.7751         0.423053   
    237. A(P  41,O  44,H  83)          109.0901         0.422147   
    238. A(C  37,C  45,H  84)           97.5708         0.289618   
    239. A(C  31,C  45,H  84)          114.2591         0.335445   
    240. A(N  27,C  45,H  84)          111.1566         0.337086   
    241. A(C  31,C  45,C  37)           99.3251         0.336751   
    242. A(N  27,C  45,C  37)          119.3246         0.338401   
    243. A(N  27,C  45,C  31)          113.9112         0.395372   
    244. A(O  47,C  46,C  48)          113.3692         0.384268   
    245. A(C  48,C  46,H  85)          108.9368         0.321361   
    246. A(C  26,C  46,C  48)          102.8967         0.353209   
    247. A(O  47,C  46,H  85)          108.7680         0.343972   
    248. A(C  26,C  46,H  85)          110.3616         0.317152   
    249. A(C  26,C  46,O  47)          112.3741         0.378919   
    250. A(C  46,O  47,H  86)          107.4058         0.361438   
    251. A(O  49,C  48,H  87)          111.1155         0.340044   
    252. A(C  46,C  48,O  49)          107.5873         0.379042   
    253. A(C  24,C  48,O  49)          111.5459         0.381565   
    254. A(C  24,C  48,C  46)          101.7580         0.360424   
    255. A(C  46,C  48,H  87)          111.8576         0.321903   
    256. A(C  24,C  48,H  87)          112.5326         0.323929   
    257. A(C  48,O  49,H  88)          109.5164         0.358379   
    258. A(O  51,C  50,C  52)          111.4929         0.381185   
    259. A(C  12,C  50,C  52)          101.7409         0.363125   
    260. A(C  12,C  50,O  51)          108.4863         0.382841   
    261. A(C  52,C  50,H  89)          111.2317         0.323570   
    262. A(O  51,C  50,H  89)          111.2884         0.340441   
    263. A(C  12,C  50,H  89)          112.2203         0.324899   
    264. A(C  50,O  51,H  90)          108.4991         0.355826   
    265. A(C  50,C  52,O  53)          114.7328         0.384027   
    266. A(C  10,C  52,O  53)          110.7889         0.380513   
    267. A(C  10,C  52,C  50)          101.3468         0.358333   
    268. A(O  53,C  52,H  91)          109.8056         0.341496   
    269. A(C  50,C  52,H  91)          109.5148         0.322285   
    270. A(C  10,C  52,H  91)          110.3726         0.319506   
    271. A(C  52,O  53,P  54)          124.4533         0.469697   
    272. A(O  56,P  54,O  57)          105.5501         0.558719   
    273. A(O  55,P  54,O  57)          112.3298         0.606665   
    274. A(O  53,P  54,O  57)          101.8916         0.540013   
    275. A(O  55,P  54,O  56)          117.2911         0.631549   
    276. A(O  53,P  54,O  56)          106.9795         0.561693   
    277. A(O  53,P  54,O  55)          111.4917         0.609942   
    278. A(P  54,O  56,H  92)          117.9946         0.423008   
    279. A(P  54,O  57,H  93)          107.8508         0.412529   
    280. D(C   6,C   1,N   0,H  59)    177.6945         0.035796   
    281. D(C   6,C   1,N   0,H  58)      3.4608         0.035796   
    282. D(N   2,C   1,N   0,H  59)     -3.1483         0.035796   
    283. D(N   2,C   1,N   0,H  58)   -177.3819         0.035796   
    284. D(C   3,N   2,C   1,C   6)      0.3407         0.034196   
    285. D(C   3,N   2,C   1,N   0)   -178.8577         0.034196   
    286. D(H  60,C   3,N   2,C   1)    179.7536         0.037778   
    287. D(N   4,C   3,N   2,C   1)     -0.0926         0.037778   
    288. D(C   5,N   4,C   3,N   2)     -0.2650         0.038318   
    289. D(C   5,N   4,C   3,H  60)    179.8897         0.038318   
    290. D(C   6,C   5,N   4,C   3)      0.3802         0.035275   
    291. D(N   9,C   5,N   4,C   3)   -179.9720         0.035275   
    292. D(C   5,C   6,C   1,N   2)     -0.2248         0.023216   
    293. D(N   7,C   6,C   1,N   2)   -179.4555         0.023216   
    294. D(N   7,C   6,C   1,N   0)     -0.2960         0.023216   
    295. D(N   7,C   6,C   5,N   9)     -0.4574         0.024119   
    296. D(C   5,C   6,C   1,N   0)    178.9347         0.023216   
    297. D(C   1,C   6,C   5,N   9)   -179.8717         0.024119   
    298. D(C   1,C   6,C   5,N   4)     -0.1565         0.024119   
    299. D(N   7,C   6,C   5,N   4)    179.2578         0.024119   
    300. D(C   8,N   7,C   6,C   5)      0.2379         0.025344   
    301. D(C   8,N   7,C   6,C   1)    179.5069         0.025344   
    302. D(H  61,C   8,N   7,C   6)   -178.1258         0.047403   
    303. D(N   9,C   8,N   7,C   6)      0.0790         0.047403   
    304. D(C   5,N   9,C   8,H  61)    177.8853         0.028716   
    305. D(C  10,N   9,C   8,N   7)   -179.9506         0.028716   
    306. D(C   5,N   9,C   8,N   7)     -0.3662         0.028716   
    307. D(C  10,N   9,C   5,C   6)   -179.9140         0.029275   
    308. D(C  10,N   9,C   8,H  61)     -1.6991         0.028716   
    309. D(C   8,N   9,C   5,N   4)   -179.2221         0.029275   
    310. D(C   8,N   9,C   5,C   6)      0.4787         0.029275   
    311. D(C  10,N   9,C   5,N   4)      0.3851         0.029275   
    312. D(H  62,C  10,N   9,C   5)     -7.7016         0.019636   
    313. D(C  52,C  10,N   9,C   8)    -68.0006         0.019636   
    314. D(C  52,C  10,N   9,C   5)    112.4883         0.019636   
    315. D(H  62,C  10,N   9,C   8)    171.8095         0.019636   
    316. D(O  11,C  10,N   9,C   5)   -127.4282         0.019636   
    317. D(O  11,C  10,N   9,C   8)     52.0829         0.019636   
    318. D(C  12,O  11,C  10,C  52)     -2.7388         0.023188   
    319. D(C  12,O  11,C  10,N   9)   -126.7954         0.023188   
    320. D(C  12,O  11,C  10,H  62)    116.1786         0.023188   
    321. D(C  50,C  12,O  11,C  10)    -20.5751         0.021658   
    322. D(H  63,C  12,O  11,C  10)   -138.6559         0.021658   
    323. D(C  13,C  12,O  11,C  10)    101.9795         0.021658   
    324. D(H  65,C  13,C  12,H  63)    162.9566         0.010722   
    325. D(H  65,C  13,C  12,C  50)     40.5241         0.010722   
    326. D(H  64,C  13,C  12,C  50)    162.5071         0.010722   
    327. D(H  64,C  13,C  12,H  63)    -75.0604         0.010722   
    328. D(H  64,C  13,C  12,O  11)     44.5743         0.010722   
    329. D(O  14,C  13,C  12,H  63)     41.9831         0.010722   
    330. D(O  14,C  13,C  12,O  11)    161.6178         0.010722   
    331. D(O  14,C  13,C  12,C  50)    -80.4494         0.010722   
    332. D(H  65,C  13,C  12,O  11)    -77.4087         0.010722   
    333. D(P  15,O  14,C  13,H  64)   -161.0022         0.021297   
    334. D(P  15,O  14,C  13,C  12)     80.4933         0.021297   
    335. D(P  15,O  14,C  13,H  65)    -41.7427         0.021297   
    336. D(O  18,P  15,O  14,C  13)   -105.7757         0.015786   
    337. D(O  17,P  15,O  14,C  13)    151.5426         0.015786   
    338. D(O  16,P  15,O  14,C  13)     24.9091         0.015786   
    339. D(H  66,O  17,P  15,O  16)     21.5056         0.014439   
    340. D(H  66,O  17,P  15,O  18)    146.8683         0.014439   
    341. D(H  66,O  17,P  15,O  14)   -104.6907         0.014439   
    342. D(P  19,O  18,P  15,O  14)    119.4576         0.013812   
    343. D(P  19,O  18,P  15,O  16)    -10.3798         0.013812   
    344. D(P  19,O  18,P  15,O  17)   -135.1798         0.013812   
    345. D(O  22,P  19,O  18,P  15)    131.2216         0.012313   
    346. D(O  21,P  19,O  18,P  15)   -120.5155         0.012313   
    347. D(O  20,P  19,O  18,P  15)      7.9994         0.012313   
    348. D(H  67,O  21,P  19,O  22)   -174.6854         0.017348   
    349. D(H  67,O  21,P  19,O  20)    -49.6852         0.017348   
    350. D(H  67,O  21,P  19,O  18)     78.2071         0.017348   
    351. D(C  23,O  22,P  19,O  21)    -79.5575         0.014246   
    352. D(C  23,O  22,P  19,O  20)    153.5857         0.014246   
    353. D(C  23,O  22,P  19,O  18)     29.0887         0.014246   
    354. D(H  69,C  23,O  22,P  19)   -129.8368         0.019910   
    355. D(H  68,C  23,O  22,P  19)    -12.3308         0.019910   
    356. D(C  24,C  23,O  22,P  19)    109.7195         0.019910   
    357. D(H  70,C  24,C  23,H  69)    -38.0479         0.010131   
    358. D(H  70,C  24,C  23,H  68)   -156.6950         0.010131   
    359. D(H  70,C  24,C  23,O  22)     81.1799         0.010131   
    360. D(C  48,C  24,C  23,H  69)   -165.2415         0.010131   
    361. D(C  48,C  24,C  23,H  68)     76.1114         0.010131   
    362. D(C  48,C  24,C  23,O  22)    -46.0138         0.010131   
    363. D(O  25,C  24,C  23,H  69)     78.9117         0.010131   
    364. D(O  25,C  24,C  23,H  68)    -39.7354         0.010131   
    365. D(O  25,C  24,C  23,O  22)   -161.8605         0.010131   
    366. D(C  26,O  25,C  24,H  70)   -154.4254         0.019232   
    367. D(C  26,O  25,C  24,C  48)    -36.5340         0.019232   
    368. D(C  26,O  25,C  24,C  23)     85.9052         0.019232   
    369. D(C  46,C  26,O  25,C  24)     18.7771         0.022956   
    370. D(H  71,C  26,O  25,C  24)    136.6088         0.022956   
    371. D(N  27,C  26,O  25,C  24)   -105.6243         0.022956   
    372. D(C  45,N  27,C  26,H  71)    -64.1438         0.015006   
    373. D(C  45,N  27,C  26,C  46)     57.0381         0.015006   
    374. D(C  45,N  27,C  26,O  25)    177.5879         0.015006   
    375. D(C  28,N  27,C  26,O  25)     -7.9032         0.015006   
    376. D(C  28,N  27,C  26,C  46)   -128.4530         0.015006   
    377. D(C  28,N  27,C  26,H  71)    110.3652         0.015006   
    378. D(H  72,C  28,N  27,C  45)    174.6205         0.034761   
    379. D(H  72,C  28,N  27,C  26)      0.1881         0.034761   
    380. D(C  29,C  28,N  27,C  26)   -177.5031         0.034761   
    381. D(C  29,C  28,N  27,C  45)     -3.0706         0.034761   
    382. D(H  73,C  29,C  28,H  72)      0.2865         0.034427   
    383. D(H  73,C  29,C  28,N  27)    177.8395         0.034427   
    384. D(C  30,C  29,C  28,H  72)    177.3537         0.034427   
    385. D(C  30,C  29,C  28,N  27)     -5.0933         0.034427   
    386. D(C  31,C  30,C  29,H  73)   -175.6434         0.022236   
    387. D(C  31,C  30,C  29,C  28)      7.3108         0.022236   
    388. D(H  74,C  30,C  29,H  73)      3.9420         0.022236   
    389. D(H  74,C  30,C  29,C  28)   -173.1038         0.022236   
    390. D(C  45,C  31,C  30,H  74)    178.6823         0.036848   
    391. D(C  45,C  31,C  30,C  29)     -1.7362         0.036848   
    392. D(C  32,C  31,C  30,H  74)     13.3404         0.036848   
    393. D(C  32,C  31,C  30,C  29)   -167.0781         0.036848   
    394. D(C  35,C  32,C  31,C  45)     -7.6695         0.010896   
    395. D(C  35,C  32,C  31,C  30)    159.1183         0.010896   
    396. D(O  34,C  32,C  31,C  45)    112.9965         0.010896   
    397. D(N  33,C  32,C  31,C  45)   -125.9794         0.010896   
    398. D(N  33,C  32,C  31,C  30)     40.8084         0.010896   
    399. D(O  34,C  32,C  31,C  30)    -80.2156         0.010896   
    400. D(H  76,N  33,C  32,C  35)    177.6151         0.019204   
    401. D(H  76,N  33,C  32,C  31)    -67.9507         0.019204   
    402. D(H  75,N  33,C  32,C  35)    -61.3505         0.019204   
    403. D(H  76,N  33,C  32,O  34)     56.1957         0.019204   
    404. D(H  75,N  33,C  32,O  34)    177.2302         0.019204   
    405. D(H  75,N  33,C  32,C  31)     53.0837         0.019204   
    406. D(H  77,O  34,C  32,C  31)    -89.4860         0.021467   
    407. D(H  77,O  34,C  32,C  35)     26.4320         0.021467   
    408. D(H  77,O  34,C  32,N  33)    146.7897         0.021467   
    409. D(C  39,C  35,C  32,O  34)     93.3560         0.009098   
    410. D(C  39,C  35,C  32,N  33)    -25.4235         0.009098   
    411. D(C  39,C  35,C  32,C  31)   -145.2044         0.009098   
    412. D(C  37,C  35,C  32,O  34)   -146.1931         0.009098   
    413. D(C  37,C  35,C  32,N  33)     95.0273         0.009098   
    414. D(C  37,C  35,C  32,C  31)    -24.7535         0.009098   
    415. D(O  36,C  35,C  32,O  34)    -28.5552         0.009098   
    416. D(O  36,C  35,C  32,N  33)   -147.3348         0.009098   
    417. D(O  36,C  35,C  32,C  31)     92.8844         0.009098   
    418. D(H  78,O  36,C  35,C  39)    -12.1455         0.020154   
    419. D(H  78,O  36,C  35,C  37)   -133.2052         0.020154   
    420. D(H  78,O  36,C  35,C  32)    111.6578         0.020154   
    421. D(H  79,C  37,C  35,C  39)    -88.8255         0.009121   
    422. D(H  79,C  37,C  35,O  36)     32.3412         0.009121   
    423. D(H  79,C  37,C  35,C  32)    148.6241         0.009121   
    424. D(C  45,C  37,C  35,C  39)    164.5709         0.009121   
    425. D(C  45,C  37,C  35,O  36)    -74.2625         0.009121   
    426. D(C  45,C  37,C  35,C  32)     42.0205         0.009121   
    427. D(O  38,C  37,C  35,C  39)     45.1614         0.009121   
    428. D(O  38,C  37,C  35,O  36)    166.3280         0.009121   
    429. D(O  38,C  37,C  35,C  32)    -77.3890         0.009121   
    430. D(H  81,C  39,C  35,O  36)    -58.3590         0.011480   
    431. D(H  81,C  39,C  35,C  32)   -179.0382         0.011480   
    432. D(H  80,C  39,C  35,C  37)    -57.4225         0.011480   
    433. D(H  80,C  39,C  35,O  36)   -178.4902         0.011480   
    434. D(H  80,C  39,C  35,C  32)     60.8306         0.011480   
    435. D(O  40,C  39,C  35,C  37)   -179.2267         0.011480   
    436. D(O  40,C  39,C  35,O  36)     59.7055         0.011480   
    437. D(H  81,C  39,C  35,C  37)     62.7088         0.011480   
    438. D(O  40,C  39,C  35,C  32)    -60.9737         0.011480   
    439. D(P  41,O  40,C  39,H  81)   -136.6469         0.021784   
    440. D(P  41,O  40,C  39,H  80)    -17.3346         0.021784   
    441. D(P  41,O  40,C  39,C  35)    104.7546         0.021784   
    442. D(O  44,P  41,O  40,C  39)    144.6344         0.011323   
    443. D(O  43,P  41,O  40,C  39)   -113.0951         0.011323   
    444. D(O  42,P  41,O  40,C  39)     23.1051         0.011323   
    445. D(H  82,O  43,P  41,O  44)    145.0751         0.015706   
    446. D(H  82,O  43,P  41,O  42)    -91.7922         0.015706   
    447. D(H  82,O  43,P  41,O  40)     41.2584         0.015706   
    448. D(H  83,O  44,P  41,O  43)    148.5362         0.013904   
    449. D(H  83,O  44,P  41,O  42)     19.6173         0.013904   
    450. D(H  83,O  44,P  41,O  40)   -103.6501         0.013904   
    451. D(H  84,C  45,C  37,H  79)    -39.4719         0.003755   
    452. D(H  84,C  45,C  37,C  35)     71.4531         0.003755   
    453. D(C  31,C  45,C  37,H  79)   -155.6940         0.003755   
    454. D(C  31,C  45,C  37,O  38)     78.1656         0.003755   
    455. D(N  27,C  45,C  37,H  79)     80.0177         0.003755   
    456. D(N  27,C  45,C  37,O  38)    -46.1228         0.003755   
    457. D(N  27,C  45,C  37,C  35)   -169.0573         0.003755   
    458. D(H  84,C  45,C  31,C  32)    -69.6979         0.016272   
    459. D(H  84,C  45,C  31,C  30)    123.4404         0.016272   
    460. D(C  37,C  45,C  31,C  32)     33.0374         0.016272   
    461. D(C  37,C  45,C  31,C  30)   -133.8243         0.016272   
    462. D(N  27,C  45,C  31,C  32)    161.0414         0.016272   
    463. D(N  27,C  45,C  31,C  30)     -5.8203         0.016272   
    464. D(H  84,C  45,N  27,C  28)   -122.6357         0.021600   
    465. D(C  31,C  45,C  37,C  35)    -44.7689         0.003755   
    466. D(H  84,C  45,N  27,C  26)     51.7565         0.021600   
    467. D(C  37,C  45,N  27,C  28)    125.0658         0.021600   
    468. D(C  37,C  45,N  27,C  26)    -60.5420         0.021600   
    469. D(H  84,C  45,C  37,O  38)   -165.6124         0.003755   
    470. D(C  31,C  45,N  27,C  28)      8.1707         0.021600   
    471. D(C  31,C  45,N  27,C  26)   -177.4371         0.021600   
    472. D(H  85,C  46,C  26,H  71)    133.3127         0.008875   
    473. D(H  85,C  46,C  26,N  27)     13.3251         0.008875   
    474. D(H  85,C  46,C  26,O  25)   -109.7025         0.008875   
    475. D(C  48,C  46,C  26,H  71)   -110.5776         0.008875   
    476. D(C  48,C  46,C  26,N  27)    129.4348         0.008875   
    477. D(C  48,C  46,C  26,O  25)      6.4072         0.008875   
    478. D(O  47,C  46,C  26,H  71)     11.7189         0.008875   
    479. D(O  47,C  46,C  26,N  27)   -108.2686         0.008875   
    480. D(O  47,C  46,C  26,O  25)    128.7037         0.008875   
    481. D(H  86,O  47,C  46,H  85)    151.5471         0.024999   
    482. D(H  86,O  47,C  46,C  48)     30.2008         0.024999   
    483. D(H  86,O  47,C  46,C  26)    -85.9544         0.024999   
    484. D(H  87,C  48,C  46,H  85)    -29.8073         0.010286   
    485. D(H  87,C  48,C  46,O  47)     91.4441         0.010286   
    486. D(H  87,C  48,C  46,C  26)   -146.9321         0.010286   
    487. D(O  49,C  48,C  46,O  47)    -30.8548         0.010286   
    488. D(O  49,C  48,C  46,C  26)     90.7689         0.010286   
    489. D(C  24,C  48,C  46,H  85)     90.5397         0.010286   
    490. D(C  24,C  48,C  46,O  47)   -148.2088         0.010286   
    491. D(C  24,C  48,C  46,C  26)    -26.5851         0.010286   
    492. D(H  87,C  48,C  24,H  70)    -87.7012         0.011048   
    493. D(H  87,C  48,C  24,O  25)    158.2073         0.011048   
    494. D(H  87,C  48,C  24,C  23)     38.9696         0.011048   
    495. D(O  49,C  48,C  24,H  70)     37.9701         0.011048   
    496. D(O  49,C  48,C  24,O  25)    -76.1214         0.011048   
    497. D(O  49,C  48,C  46,H  85)   -152.1063         0.010286   
    498. D(O  49,C  48,C  24,C  23)    164.6409         0.011048   
    499. D(C  46,C  48,C  24,H  70)    152.4267         0.011048   
    500. D(C  46,C  48,C  24,O  25)     38.3352         0.011048   
    501. D(C  46,C  48,C  24,C  23)    -80.9025         0.011048   
    502. D(H  88,O  49,C  48,H  87)     50.4465         0.021187   
    503. D(H  88,O  49,C  48,C  46)    173.2035         0.021187   
    504. D(H  88,O  49,C  48,C  24)    -76.0041         0.021187   
    505. D(H  89,C  50,C  12,H  63)    -88.8738         0.011370   
    506. D(H  89,C  50,C  12,C  13)     32.4908         0.011370   
    507. D(H  89,C  50,C  12,O  11)    154.0248         0.011370   
    508. D(C  52,C  50,C  12,H  63)    152.1495         0.011370   
    509. D(C  52,C  50,C  12,C  13)    -86.4858         0.011370   
    510. D(C  52,C  50,C  12,O  11)     35.0482         0.011370   
    511. D(O  51,C  50,C  12,H  63)     34.5001         0.011370   
    512. D(O  51,C  50,C  12,C  13)    155.8648         0.011370   
    513. D(O  51,C  50,C  12,O  11)    -82.6012         0.011370   
    514. D(H  90,O  51,C  50,H  89)    -72.4746         0.021365   
    515. D(H  90,O  51,C  50,C  52)     52.3551         0.021365   
    516. D(H  90,O  51,C  50,C  12)    163.5929         0.021365   
    517. D(H  91,C  52,C  50,O  51)   -163.1393         0.010848   
    518. D(H  91,C  52,C  50,C  12)     81.3999         0.010848   
    519. D(O  53,C  52,C  50,H  89)     85.7117         0.010848   
    520. D(O  53,C  52,C  50,C  12)   -154.6105         0.010848   
    521. D(C  10,C  52,C  50,H  89)   -154.8820         0.010848   
    522. D(C  10,C  52,C  50,O  51)     80.2566         0.010848   
    523. D(C  10,C  52,C  50,C  12)    -35.2042         0.010848   
    524. D(H  91,C  52,C  10,H  62)    149.0112         0.009832   
    525. D(H  91,C  52,C  10,O  11)    -91.5284         0.009832   
    526. D(H  91,C  52,C  10,N   9)     30.8930         0.009832   
    527. D(O  53,C  52,C  10,H  62)     27.1684         0.009832   
    528. D(O  53,C  52,C  10,O  11)    146.6288         0.009832   
    529. D(O  53,C  52,C  50,O  51)    -39.1496         0.010848   
    530. D(O  53,C  52,C  10,N   9)    -90.9498         0.009832   
    531. D(C  50,C  52,C  10,H  62)    -95.0148         0.009832   
    532. D(C  50,C  52,C  10,O  11)     24.4456         0.009832   
    533. D(H  91,C  52,C  50,H  89)    -38.2779         0.010848   
    534. D(C  50,C  52,C  10,N   9)    146.8670         0.009832   
    535. D(P  54,O  53,C  52,H  91)     68.5705         0.023363   
    536. D(P  54,O  53,C  52,C  50)    -55.2646         0.023363   
    537. D(P  54,O  53,C  52,C  10)   -169.2549         0.023363   
    538. D(O  57,P  54,O  53,C  52)     91.9235         0.011623   
    539. D(O  56,P  54,O  53,C  52)    -18.6094         0.011623   
    540. D(O  55,P  54,O  53,C  52)   -148.0634         0.011623   
    541. D(H  92,O  56,P  54,O  57)    -11.5012         0.016392   
    542. D(H  92,O  56,P  54,O  55)   -137.4696         0.016392   
    543. D(H  92,O  56,P  54,O  53)     96.4739         0.016392   
    544. D(H  93,O  57,P  54,O  56)   -122.7102         0.011037   
    545. D(H  93,O  57,P  54,O  55)      6.2521         0.011037   
    546. D(H  93,O  57,P  54,O  53)    125.6746         0.011037   
    -----------------------------------------------------------------

Number of atoms                         .... 94
Number of degrees of freedom            .... 546

         *************************************************************
         *                GEOMETRY OPTIMIZATION CYCLE   1            *
         *************************************************************
---------------------------------
CARTESIAN COORDINATES (ANGSTROEM)
---------------------------------
  N     6.661709    6.067036   -2.434965
  C     6.179628    4.847360   -2.731294
  N     6.628246    4.231815   -3.831143
  C     6.140846    3.039138   -4.142241
  N     5.232234    2.321037   -3.501213
  C     4.789021    2.929715   -2.400057
  C     5.209411    4.191136   -1.946938
  N     4.533138    4.512664   -0.792857
  C     3.754771    3.500439   -0.562211
  N     3.858091    2.497280   -1.492928
  C     3.162021    1.247416   -1.561152
  O     1.768043    1.443028   -1.472446
  C     1.202515    0.643775   -0.444882
  C     0.914867    1.474152    0.814392
  O    -0.009780    0.818926    1.672581
  P     0.480759   -0.331943    2.645198
  O     1.889319   -0.275531    3.014763
  O    -0.555074   -0.223773    3.841418
  O    -0.038005   -1.694971    2.005972
  P     0.736572   -3.000285    1.472624
  O     2.170277   -3.026461    1.751747
  O     0.327595   -3.111506   -0.029197
  O    -0.058280   -4.181335    2.176156
  C    -1.433246   -4.056786    2.506999
  C    -2.386213   -4.921271    1.653716
  O    -3.715261   -4.422359    1.768814
  C    -3.917948   -3.399378    0.833183
  N    -3.931234   -2.080938    1.479594
  C    -3.920181   -2.013326    2.826071
  C    -3.980066   -0.848050    3.523512
  C    -3.948252    0.371462    2.806009
  C    -4.010538    0.338071    1.457002
  C    -3.702803    1.537775    0.569431
  N    -2.567900    2.278968    1.041020
  O    -4.782527    2.439848    0.480006
  C    -3.378190    0.893187   -0.813460
  O    -4.578405    0.855515   -1.567791
  C    -2.897540   -0.558956   -0.509602
  O    -1.698878   -0.697909   -0.074900
  C    -2.298749    1.645115   -1.586255
  O    -2.719598    2.962810   -1.848370
  P    -2.081320    4.173555   -0.979796
  O    -0.773305    3.887931   -0.378017
  O    -3.265598    4.742578   -0.112622
  O    -2.013596    5.323552   -2.077738
  C    -4.073223   -0.910669    0.688500
  C    -2.802368   -3.550633   -0.251983
  O    -3.318611   -3.569702   -1.542464
  C    -2.108878   -4.867905    0.148743
  O    -2.758833   -5.917437   -0.535668
  C     2.218679   -0.470206   -0.203031
  O     2.015205   -1.478406   -1.168138
  C     3.546381    0.264045   -0.428675
  O     4.609006   -0.555888   -0.822546
  P     5.112492   -1.857031   -0.004720
  O     6.542204   -2.058159   -0.153392
  O     4.552672   -1.725786    1.454387
  O     4.246678   -3.044138   -0.698304
  H     6.362382    6.521405   -1.591981
  H     7.381550    6.468016   -3.017994
  H     6.541554    2.597151   -5.045220
  H     3.064426    3.444598    0.257420
  H     3.425935    0.807803   -2.535561
  H     0.255754    0.222663   -0.804818
  H     0.443012    2.418891    0.514915
  H     1.836406    1.660344    1.373742
  H    -0.134069    0.191137    4.595127
  H     0.817705   -2.480148   -0.613022
  H    -1.725640   -3.012312    2.406770
  H    -1.530067   -4.356813    3.555460
  H    -2.410772   -5.950539    2.024414
  H    -4.905933   -3.548291    0.368443
  H    -3.898682   -2.966664    3.330464
  H    -4.002533   -0.858735    4.598651
  H    -3.882050    1.308717    3.335908
  H    -1.768531    1.666253    1.168197
  H    -2.774555    2.737348    1.921183
  H    -5.322335    2.143966   -0.274037
  H    -4.481181    1.477897   -2.300976
  H    -3.189405   -1.210732   -1.355325
  H    -1.365636    1.655958   -1.025870
  H    -2.140034    1.144487   -2.548018
  H    -3.821155    4.033362    0.247406
  H    -1.109764    5.419179   -2.375158
  H    -4.940829   -0.986416    0.021751
  H    -2.081633   -2.731959   -0.173422
  H    -3.566837   -4.485661   -1.742103
  H    -1.042390   -4.851110   -0.079412
  H    -2.282206   -6.740044   -0.389572
  H     2.156807   -0.872139    0.808201
  H     2.803833   -2.050355   -1.188748
  H     3.819083    0.815173    0.479237
  H     3.723037   -2.192766    1.670638
  H     4.858854   -3.717627   -0.997831

----------------------------
CARTESIAN COORDINATES (A.U.)
----------------------------
  NO LB    ZA    FRAG    MASS        X           Y           Z
   0 N   7.0000    0    14.007   12.588806   11.465036   -4.601417
   1 C   6.0000    0    12.011   11.677805    9.160183   -5.161398
   2 N   7.0000    0    14.007   12.525570    7.996971   -7.239811
   3 C   6.0000    0    12.011   11.604517    5.743139   -7.827701
   4 N   7.0000    0    14.007    9.887489    4.386124   -6.616334
   5 C   6.0000    0    12.011    9.049938    5.536359   -4.535450
   6 C   6.0000    0    12.011    9.844360    7.920099   -3.679180
   7 N   7.0000    0    14.007    8.566389    8.527699   -1.498283
   8 C   6.0000    0    12.011    7.095489    6.614871   -1.062425
   9 N   7.0000    0    14.007    7.290735    4.719175   -2.821225
  10 C   6.0000    0    12.011    5.975354    2.357275   -2.950150
  11 O   8.0000    0    15.999    3.341117    2.726928   -2.782520
  12 C   6.0000    0    12.011    2.272424    1.216558   -0.840705
  13 C   6.0000    0    12.011    1.728848    2.785744    1.538978
  14 O   8.0000    0    15.999   -0.018482    1.547546    3.160720
  15 P  15.0000    0    30.974    0.908503   -0.627281    4.998700
  16 O   8.0000    0    15.999    3.570295   -0.520678    5.697076
  17 O   8.0000    0    15.999   -1.048938   -0.422870    7.259228
  18 O   8.0000    0    15.999   -0.071819   -3.203031    3.790738
  19 P  15.0000    0    30.974    1.391919   -5.669717    2.782856
  20 O   8.0000    0    15.999    4.101229   -5.719182    3.310322
  21 O   8.0000    0    15.999    0.619065   -5.879894   -0.055174
  22 O   8.0000    0    15.999   -0.110133   -7.901578    4.112339
  23 C   6.0000    0    12.011   -2.708442   -7.666215    4.737542
  24 C   6.0000    0    12.011   -4.509289   -9.299854    3.125070
  25 O   8.0000    0    15.999   -7.020826   -8.357047    3.342574
  26 C   6.0000    0    12.011   -7.403849   -6.423893    1.574488
  27 N   7.0000    0    14.007   -7.428956   -3.932403    2.796027
  28 C   6.0000    0    12.011   -7.408068   -3.804635    5.340500
  29 C   6.0000    0    12.011   -7.521235   -1.602582    6.658473
  30 C   6.0000    0    12.011   -7.461115    0.701961    5.302589
  31 C   6.0000    0    12.011   -7.578818    0.638862    2.753335
  32 C   6.0000    0    12.011   -6.997284    2.905974    1.076069
  33 N   7.0000    0    14.007   -4.852628    4.306625    1.967243
  34 O   8.0000    0    15.999   -9.037666    4.610645    0.907080
  35 C   6.0000    0    12.011   -6.383854    1.687879   -1.537217
  36 O   8.0000    0    15.999   -8.651932    1.616689   -2.962696
  37 C   6.0000    0    12.011   -5.475557   -1.056274   -0.963008
  38 O   8.0000    0    15.999   -3.210414   -1.318857   -0.141540
  39 C   6.0000    0    12.011   -4.344006    3.108817   -2.997588
  40 O   8.0000    0    15.999   -5.139295    5.598899   -3.492913
  41 P  15.0000    0    30.974   -3.933125    7.886876   -1.851546
  42 O   8.0000    0    15.999   -1.461335    7.347125   -0.714349
  43 O   8.0000    0    15.999   -6.171086    8.962174   -0.212825
  44 O   8.0000    0    15.999   -3.805145   10.060055   -3.926356
  45 C   6.0000    0    12.011   -7.697276   -1.720915    1.301076
  46 C   6.0000    0    12.011   -5.295708   -6.709724   -0.476179
  47 O   8.0000    0    15.999   -6.271266   -6.745759   -2.914835
  48 C   6.0000    0    12.011   -3.985202   -9.199007    0.281084
  49 O   8.0000    0    15.999   -5.213439  -11.182335   -1.012266
  50 C   6.0000    0    12.011    4.192696   -0.888561   -0.383673
  51 O   8.0000    0    15.999    3.808186   -2.793782   -2.207461
  52 C   6.0000    0    12.011    6.701689    0.498973   -0.810078
  53 O   8.0000    0    15.999    8.709759   -1.050476   -1.554387
  54 P  15.0000    0    30.974    9.661210   -3.509280   -0.008920
  55 O   8.0000    0    15.999   12.362974   -3.889357   -0.289869
  56 O   8.0000    0    15.999    8.603303   -3.261263    2.748393
  57 O   8.0000    0    15.999    8.025058   -5.752587   -1.319603
  58 H   1.0000    0     1.008   12.023160   12.323669   -3.008408
  59 H   1.0000    0     1.008   13.949108   12.222779   -5.703182
  60 H   1.0000    0     1.008   12.361746    4.907904   -9.534084
  61 H   1.0000    0     1.008    5.790926    6.509347    0.486453
  62 H   1.0000    0     1.008    6.474079    1.526526   -4.791516
  63 H   1.0000    0     1.008    0.483305    0.420772   -1.520886
  64 H   1.0000    0     1.008    0.837171    4.571042    0.973048
  65 H   1.0000    0     1.008    3.470304    3.137595    2.595996
  66 H   1.0000    0     1.008   -0.253354    0.361197    8.683532
  67 H   1.0000    0     1.008    1.545239   -4.686800   -1.158444
  68 H   1.0000    0     1.008   -3.260987   -5.692445    4.548136
  69 H   1.0000    0     1.008   -2.891408   -8.233183    6.718846
  70 H   1.0000    0     1.008   -4.555699  -11.244889    3.825588
  71 H   1.0000    0     1.008   -9.270870   -6.705298    0.696256
  72 H   1.0000    0     1.008   -7.367441   -5.606182    6.293665
  73 H   1.0000    0     1.008   -7.563691   -1.622774    8.690191
  74 H   1.0000    0     1.008   -7.336011    2.473117    6.303953
  75 H   1.0000    0     1.008   -3.342039    3.148762    2.207572
  76 H   1.0000    0     1.008   -5.243149    5.172838    3.630510
  77 H   1.0000    0     1.008  -10.057756    4.051509   -0.517855
  78 H   1.0000    0     1.008   -8.468205    2.792821   -4.348214
  79 H   1.0000    0     1.008   -6.027102   -2.287952   -2.561193
  80 H   1.0000    0     1.008   -2.580678    3.129307   -1.938613
  81 H   1.0000    0     1.008   -4.044078    2.162767   -4.815056
  82 H   1.0000    0     1.008   -7.220936    7.621950    0.467530
  83 H   1.0000    0     1.008   -2.097150   10.240764   -4.488398
  84 H   1.0000    0     1.008   -9.336814   -1.864056    0.041103
  85 H   1.0000    0     1.008   -3.933716   -5.162654   -0.327720
  86 H   1.0000    0     1.008   -6.740345   -8.476671   -3.292098
  87 H   1.0000    0     1.008   -1.969832   -9.167269   -0.150067
  88 H   1.0000    0     1.008   -4.312744  -12.736837   -0.736184
  89 H   1.0000    0     1.008    4.075775   -1.648104    1.527279
  90 H   1.0000    0     1.008    5.298476   -3.874609   -2.246408
  91 H   1.0000    0     1.008    7.217021    1.540454    0.905627
  92 H   1.0000    0     1.008    7.035520   -4.143727    3.157048
  93 H   1.0000    0     1.008    9.181903   -7.025297   -1.885627

      -----------------------------------------------------------      
     |                   =====================                   |     
     |                           x T B                           |     
     |                   =====================                   |     
     |                         S. Grimme                         |     
     |          Mulliken Center for Theoretical Chemistry        |     
     |                    University of Bonn                     |     
      -----------------------------------------------------------      

   * xtb version 6.5.1 (579679a) compiled by 'ehlert@majestix' on 2022-07-11

   xtb is free software: you can redistribute it and/or modify it under
   the terms of the GNU Lesser General Public License as published by
   the Free Software Foundation, either version 3 of the License, or
   (at your option) any later version.
   
   xtb is distributed in the hope that it will be useful,
   but WITHOUT ANY WARRANTY; without even the implied warranty of
   MERCHANTABILITY or FITNESS FOR A PARTICULAR PURPOSE.  See the
   GNU Lesser General Public License for more details.
   
   Cite this work as:
   * C. Bannwarth, E. Caldeweyher, S. Ehlert, A. Hansen, P. Pracht,
     J. Seibert, S. Spicher, S. Grimme, WIREs Comput. Mol. Sci., 2020, 11,
     e01493. DOI: 10.1002/wcms.1493
   
   for GFN2-xTB:
   * C. Bannwarth, S. Ehlert and S. Grimme., J. Chem. Theory Comput., 2019,
     15, 1652-1671. DOI: 10.1021/acs.jctc.8b01176
   for GFN1-xTB:
   * S. Grimme, C. Bannwarth, P. Shushkov, J. Chem. Theory Comput., 2017,
     13, 1989-2009. DOI: 10.1021/acs.jctc.7b00118
   for GFN0-xTB:
   * P. Pracht, E. Caldeweyher, S. Ehlert, S. Grimme, ChemRxiv, 2019, preprint.
     DOI: 10.26434/chemrxiv.8326202.v1
   for GFN-FF:
   * S. Spicher and S. Grimme, Angew. Chem. Int. Ed., 2020, 59, 15665-15673.
     DOI: 10.1002/anie.202004239
   
   for ALPB and GBSA implicit solvation:
   * S. Ehlert, M. Stahn, S. Spicher, S. Grimme, J. Chem. Theory Comput.,
     2021, 17, 4250-4261. DOI: 10.1021/acs.jctc.1c00471
   
   for DFT-D4:
   * E. Caldeweyher, C. Bannwarth and S. Grimme, J. Chem. Phys., 2017,
     147, 034112. DOI: 10.1063/1.4993215
   * E. Caldeweyher, S. Ehlert, A. Hansen, H. Neugebauer, S. Spicher,
     C. Bannwarth and S. Grimme, J. Chem. Phys., 2019, 150, 154122.
     DOI: 10.1063/1.5090222
   * E. Caldeweyher, J.-M. Mewes, S. Ehlert and S. Grimme, Phys. Chem. Chem. Phys.
     2020, 22, 8499-8512. DOI: 10.1039/D0CP00502A
   
   for sTDA-xTB:
   * S. Grimme and C. Bannwarth, J. Chem. Phys., 2016, 145, 054103.
     DOI: 10.1063/1.4959605
   
   in the mass-spec context:
   * V. Asgeirsson, C. Bauer and S. Grimme, Chem. Sci., 2017, 8, 4879.
     DOI: 10.1039/c7sc00601b
   * J. Koopman and S. Grimme, ACS Omega 2019, 4, 12, 15120-15133.
     DOI: 10.1021/acsomega.9b02011
   
   for metadynamics refer to:
   * S. Grimme, J. Chem. Theory Comput., 2019, 155, 2847-2862
     DOI: 10.1021/acs.jctc.9b00143
   
   for SPH calculations refer to:
   * S. Spicher and S. Grimme, J. Chem. Theory Comput., 2021, 17, 1701-1714
     DOI: 10.1021/acs.jctc.0c01306
   
   with help from (in alphabetical order)
   P. Atkinson, C. Bannwarth, F. Bohle, G. Brandenburg, E. Caldeweyher
   M. Checinski, S. Dohm, S. Ehlert, S. Ehrlich, I. Gerasimov, C. Hlzer
   A. Katbashev, J. Koopman, C. Lavigne, S. Lehtola, F. Mrz, M. Mller,
   F. Musil, H. Neugebauer, J. Pisarek, C. Plett, P. Pracht, F. Pultar,
   J. Seibert, P. Shushkov, S. Spicher, M. Stahn, M. Steiner, T. Strunk,
   J. Stckrath, T. Rose, and J. Unsleber
   
 * started run on 2023/12/07 at 16:28:17.826     

           -------------------------------------------------
          |                Calculation Setup                |
           -------------------------------------------------

          program call               : otool_xtb /tmp/12_XTB.xyz --grad -c 0 -u 0 -P 1 --namespace /tmp/12 --input /tmp/12_XTB.input.tmp --acc 1.000000
          calculation namespace      : /tmp/12
          coordinate file            : /tmp/12_XTB.xyz
          omp threads                :                     1

   ID    Z sym.   atoms
    1    7 N      1, 3, 5, 8, 10, 28, 34
    2    6 C      2, 4, 6, 7, 9, 11, 13, 14, 24, 25, 27, 29-33, 36, 38, 40,
                  46, 47, 49, 51, 53
    3    8 O      12, 15, 17-19, 21-23, 26, 35, 37, 39, 41, 43-45, 48, 50,
                  52, 54, 56-58
    4   15 P      16, 20, 42, 55
    5    1 H      59-94

           -------------------------------------------------
          |                 G F N 2 - x T B                 |
           -------------------------------------------------

        Reference                      10.1021/acs.jctc.8b01176
      * Hamiltonian:
        H0-scaling (s, p, d)           1.850000    2.230000    2.230000
        zeta-weighting                 0.500000
      * Dispersion:
        s8                             2.700000
        a1                             0.520000
        a2                             5.000000
        s9                             5.000000
      * Repulsion:
        kExp                           1.500000    1.000000
        rExp                           1.000000
      * Coulomb:
        alpha                          2.000000
        third order                    shell-resolved
        anisotropic                    true
        a3                             3.000000
        a5                             4.000000
        cn-shift                       1.200000
        cn-exp                         4.000000
        max-rad                        5.000000

q/qsh data taken from xtbrestart
CAMM data taken from xtbrestart

          ...................................................
          :                      SETUP                      :
          :.................................................:
          :  # basis functions                 292          :
          :  # atomic orbitals                 288          :
          :  # shells                          156          :
          :  # electrons                       325          :
          :  max. iterations                   250          :
          :  Hamiltonian                  GFN2-xTB          :
          :  restarted?                       true          :
          :  GBSA solvation                  false          :
          :  PC potential                    false          :
          :  electronic temp.          300.0000000     K    :
          :  accuracy                    1.0000000          :
          :  -> integral cutoff          0.2500000E+02      :
          :  -> integral neglect         0.1000000E-07      :
          :  -> SCF convergence          0.1000000E-05 Eh   :
          :  -> wf. convergence          0.1000000E-03 e    :
          :  Broyden damping             0.4000000          :
          ...................................................

 iter      E             dE          RMSdq      gap      omega  full diag
   1   -196.1118974 -0.196112E+03  0.201E-01    1.93       0.0  T
   2   -196.1116093  0.288064E-03  0.125E-01    1.94       1.0  T
   3   -196.1113425  0.266867E-03  0.853E-02    1.91       1.0  T
   4   -196.1118854 -0.542962E-03  0.370E-02    1.94       1.0  T
   5   -196.1119958 -0.110432E-03  0.247E-02    1.93       1.0  T
   6   -196.1120788 -0.829446E-04  0.135E-02    1.94       1.0  T
   7   -196.1121067 -0.278927E-04  0.600E-03    1.94       1.7  T
   8   -196.1121114 -0.473798E-05  0.382E-03    1.94       2.7  T
   9   -196.1121140 -0.256161E-05  0.150E-03    1.94       6.9  T
  10   -196.1121145 -0.507244E-06  0.307E-04    1.94      33.6  T
  11   -196.1121145 -0.715829E-09  0.177E-04    1.94      58.4  T

   *** convergence criteria satisfied after 11 iterations ***

         #    Occupation            Energy/Eh            Energy/eV
      -------------------------------------------------------------
         1        2.0000           -0.7676475             -20.8888
       ...           ...                  ...                  ...
       157        2.0000           -0.4015275             -10.9261
       158        2.0000           -0.3927394             -10.6870
       159        2.0000           -0.3836605             -10.4399
       160        2.0000           -0.3766821             -10.2500
       161        2.0000           -0.3745875             -10.1930
       162        1.9781           -0.3575543              -9.7295
       163        1.0219           -0.3503350              -9.5331 (HOMO)
       164                         -0.2792120              -7.5977 (LUMO)
       165                         -0.2440215              -6.6402
       166                         -0.2193558              -5.9690
       167                         -0.1911065              -5.2003
       168                         -0.1806903              -4.9168
       ...                                ...                  ...
       288                          1.4149909              38.5039
      -------------------------------------------------------------
                  HL-Gap            0.0711230 Eh            1.9354 eV
             Fermi-level           -0.3343591 Eh           -9.0984 eV

 SCC (total)                   0 d,  0 h,  0 min,  0.392 sec
 SCC setup                      ...        0 min,  0.001 sec (  0.273%)
 Dispersion                     ...        0 min,  0.002 sec (  0.581%)
 classical contributions        ...        0 min,  0.000 sec (  0.103%)
 integral evaluation            ...        0 min,  0.045 sec ( 11.433%)
 iterations                     ...        0 min,  0.174 sec ( 44.292%)
 molecular gradient             ...        0 min,  0.168 sec ( 42.754%)
 printout                       ...        0 min,  0.002 sec (  0.555%)

         :::::::::::::::::::::::::::::::::::::::::::::::::::::
         ::                     SUMMARY                     ::
         :::::::::::::::::::::::::::::::::::::::::::::::::::::
         :: total energy            -194.498496014048 Eh    ::
         :: gradient norm              0.012335882346 Eh/a0 ::
         :: HOMO-LUMO gap              1.935356111480 eV    ::
         ::.................................................::
         :: SCC energy              -196.112114493096 Eh    ::
         :: -> isotropic ES            0.663277940116 Eh    ::
         :: -> anisotropic ES         -0.055565016732 Eh    ::
         :: -> anisotropic XC          0.022429928487 Eh    ::
         :: -> dispersion             -0.146720159977 Eh    ::
         :: repulsion energy           1.606356098840 Eh    ::
         :: add. restraining           0.000000000000 Eh    ::
         :: total charge               0.000000000416 e     ::
         :::::::::::::::::::::::::::::::::::::::::::::::::::::


Property printout bound to 'properties.out'

           -------------------------------------------------
          | TOTAL ENERGY             -194.498496014048 Eh   |
          | GRADIENT NORM               0.012335882346 Eh/ |
          | HOMO-LUMO GAP               1.935356111480 eV   |
           -------------------------------------------------

------------------------------------------------------------------------
 * finished run on 2023/12/07 at 16:28:18.273     
------------------------------------------------------------------------
 total:
 * wall-time:     0 d,  0 h,  0 min,  0.447 sec
 *  cpu-time:     0 d,  0 h,  0 min,  0.444 sec
 * ratio c/w:     0.994 speedup
 SCF:
 * wall-time:     0 d,  0 h,  0 min,  0.393 sec
 *  cpu-time:     0 d,  0 h,  0 min,  0.396 sec
 * ratio c/w:     1.008 speedup


-------------------------   --------------------
FINAL SINGLE POINT ENERGY      -194.498496014050
-------------------------   --------------------

------------------------------------------------------------------------------
                         ORCA GEOMETRY RELAXATION STEP
------------------------------------------------------------------------------

Reading the OPT-File                    .... done
Getting information on internals        .... done
Copying old internal coords+grads       .... done
Making the new internal coordinates     .... (new redundants).... done
Validating the new internal coordinates .... (new redundants).... done
Calculating the B-matrix                .... done
Calculating the G,G- and P matrices     .... done
Transforming gradient to internals      .... done
Projecting the internal gradient        .... done
Number of atoms                         ....  94
Number of internal coordinates          .... 546
Current Energy                          ....  -194.498496014 Eh
Current gradient norm                   ....     0.012335882 Eh/bohr
Maximum allowed component of the step   ....  0.300
Current trust radius                    ....  0.300
Evaluating the initial hessian          ....  (Almloef) done
Projecting the Hessian                  .... done
Forming the augmented Hessian           .... done
Diagonalizing the augmented Hessian     .... done
Last element of RFO vector              ....  0.983697193
Lowest eigenvalues of augmented Hessian:
 -0.000325762  0.000228723  0.000561718  0.001711100  0.003741723
Length of the computed step             ....  0.182813158
The final length of the internal step   ....  0.182813158
Converting the step to cartesian space:
 Initial RMS(Int)=    0.0078236809
Transforming coordinates:
 Iter   0:  RMS(Cart)=    0.0734596217 RMS(Int)=    0.3799221080
 Iter   1:  RMS(Cart)=    0.0014510748 RMS(Int)=    0.0003950059
 Iter   2:  RMS(Cart)=    0.0000321250 RMS(Int)=    0.0000068938
 Iter   3:  RMS(Cart)=    0.0000007795 RMS(Int)=    0.0000002169
 Iter   4:  RMS(Cart)=    0.0000000222 RMS(Int)=    0.0000000053
done
Storing new coordinates                 .... done

                                .--------------------.
          ----------------------|Geometry convergence|-------------------------
          Item                value                   Tolerance       Converged
          ---------------------------------------------------------------------
          RMS gradient        0.0005051593            0.0001000000      NO
          MAX gradient        0.0049114293            0.0003000000      NO
          RMS step            0.0078236809            0.0020000000      NO
          MAX step            0.1399732210            0.0040000000      NO
          ........................................................
          Max(Bonds)      0.0741      Max(Angles)    0.20
          Max(Dihed)        0.67      Max(Improp)    0.00
          ---------------------------------------------------------------------

The optimization has not yet converged - more geometry cycles are needed


    ---------------------------------------------------------------------------
                         Redundant Internal Coordinates
                            (Angstroem and degrees)

        Definition                    Value    dE/dq     Step     New-Value
    ----------------------------------------------------------------------------
     1. B(C   1,N   0)                1.3446  0.001588 -0.0013    1.3433   
     2. B(N   2,C   1)                1.3378  0.001882 -0.0015    1.3364   
     3. B(C   3,N   2)                1.3255  0.002692 -0.0021    1.3234   
     4. B(N   4,C   3)                1.3237  0.004911 -0.0037    1.3200   
     5. B(C   5,N   4)                1.3340  0.002427 -0.0019    1.3321   
     6. B(C   6,C   5)                1.4047  0.001407 -0.0011    1.4036   
     7. B(C   6,C   1)                1.4097  0.003707 -0.0033    1.4064   
     8. B(N   7,C   6)                1.3757  0.002213 -0.0020    1.3737   
     9. B(C   8,N   7)                1.2976  0.003013 -0.0021    1.2955   
    10. B(N   9,C   5)                1.3699  0.002676 -0.0023    1.3676   
    11. B(N   9,C   8)                1.3723  0.000325 -0.0003    1.3720   
    12. B(C  10,N   9)                1.4322  0.000497 -0.0005    1.4317   
    13. B(O  11,C  10)                1.4104 -0.000036  0.0000    1.4105   
    14. B(C  12,O  11)                1.4193 -0.000008  0.0000    1.4193   
    15. B(C  13,C  12)                1.5356  0.000046 -0.0001    1.5355   
    16. B(O  14,C  13)                1.4215  0.000140 -0.0001    1.4215   
    17. B(P  15,O  14)                1.5846  0.000335 -0.0002    1.5845   
    18. B(O  16,P  15)                1.4573  0.000506 -0.0002    1.4571   
    19. B(O  17,P  15)                1.5861  0.000203 -0.0001    1.5859   
    20. B(O  18,P  15)                1.5923  0.000258 -0.0001    1.5922   
    21. B(P  19,O  18)                1.6088  0.000008  0.0000    1.6088   
    22. B(O  20,P  19)                1.4609  0.000238 -0.0001    1.4608   
    23. B(O  21,P  19)                1.5605  0.000069 -0.0000    1.5604   
[...]
256:   2944.21   0.005703   28.82  0.000604  ( 0.009439  0.022218  0.004664)
257:   2948.40   0.021260  107.44  0.002250  ( 0.019323  0.043193 -0.003356)
258:   2954.63   0.007742   39.13  0.000818  (-0.016974 -0.018254  0.014014)
259:   2995.59   0.005473   27.66  0.000570  (-0.018855 -0.010475  0.010241)
260:   3006.63   0.004499   22.74  0.000467  ( 0.014951 -0.011413  0.010637)
261:   3012.85   0.009803   49.54  0.001015  (-0.016961 -0.010158 -0.024991)
262:   3021.97   0.009033   45.65  0.000933  (-0.022165  0.020473 -0.004729)
263:   3069.81   0.022411  113.25  0.002278  ( 0.033590 -0.005721 -0.033424)
264:   3095.98   0.008581   43.36  0.000865  (-0.018903  0.021781  0.005756)
265:   3105.20   0.000836    4.23  0.000084  (-0.005961 -0.006965  0.000062)
266:   3134.93   0.005367   27.12  0.000534  (-0.013417 -0.010699  0.015485)
267:   3178.85   0.001558    7.87  0.000153  ( 0.000947  0.012299 -0.000904)
268:   3201.10   0.068902  348.20  0.006717  (-0.074626 -0.025774  0.021992)
269:   3306.57   0.046992  237.48  0.004435  ( 0.003476  0.065195 -0.013136)
270:   3346.69   0.049995  252.65  0.004662  (-0.054392  0.039884 -0.010611)
271:   3362.13   0.013615   68.80  0.001264  ( 0.016837  0.000518  0.031304)
272:   3399.05   0.010239   51.74  0.000940  (-0.018882  0.014802 -0.019089)
273:   3424.05   0.003778   19.09  0.000344  ( 0.007282 -0.014787 -0.008525)
274:   3444.27   0.017924   90.58  0.001624  ( 0.002470  0.040090 -0.003262)
275:   3490.54   0.035856  181.20  0.003206  (-0.039731 -0.039804  0.006532)
276:   3494.61   0.008797   44.46  0.000786  (-0.001085  0.017015 -0.022246)
277:   3568.49   0.007158   36.17  0.000626  ( 0.018213 -0.015775 -0.006736)
278:   3572.09   0.010863   54.90  0.000949  ( 0.007321 -0.027704 -0.011310)
279:   3602.40   0.013961   70.55  0.001209  (-0.001012 -0.002886 -0.034641)
280:   3626.11   0.001024    5.18  0.000088  (-0.008635  0.002204  0.002952)
281:   3627.07   0.007041   35.58  0.000606  ( 0.012167 -0.020748 -0.005226)

* The epsilon (eps) is given for a Dirac delta lineshape.
** The dipole moment derivative (T) already includes vibrational overlap.

The first frequency considered to be a vibration is 6
The total number of vibrations considered is 276


--------------------------
THERMOCHEMISTRY AT 298.15K
--------------------------

Temperature         ... 298.15 K
Pressure            ... 1.00 atm
Total Mass          ... 914.47 AMU

Throughout the following assumptions are being made:
  (1) The electronic state is orbitally nondegenerate
  (2) There are no thermally accessible electronically excited states
  (3) Hindered rotations indicated by low frequency modes are not
      treated as such but are treated as vibrations and this may
      cause some error
  (4) All equations used are the standard statistical mechanics
      equations for an ideal gas
  (5) All vibrations are strictly harmonic

freq.       1.74  E(vib)   ...       0.59 
freq.       9.81  E(vib)   ...       0.58 
freq.      14.91  E(vib)   ...       0.57 
freq.      21.33  E(vib)   ...       0.56 
freq.      27.04  E(vib)   ...       0.55 
freq.      32.96  E(vib)   ...       0.55 
freq.      39.31  E(vib)   ...       0.54 
freq.      41.80  E(vib)   ...       0.53 
freq.      44.98  E(vib)   ...       0.53 
freq.      49.48  E(vib)   ...       0.52 
freq.      54.31  E(vib)   ...       0.52 
freq.      58.48  E(vib)   ...       0.51 
freq.      67.24  E(vib)   ...       0.50 
freq.      71.88  E(vib)   ...       0.50 
freq.      80.59  E(vib)   ...       0.48 
freq.      84.65  E(vib)   ...       0.48 
freq.      90.18  E(vib)   ...       0.47 
freq.      93.74  E(vib)   ...       0.47 
freq.      94.30  E(vib)   ...       0.47 
freq.      99.96  E(vib)   ...       0.46 
freq.     113.05  E(vib)   ...       0.45 
freq.     115.69  E(vib)   ...       0.44 
freq.     116.77  E(vib)   ...       0.44 
freq.     124.14  E(vib)   ...       0.43 
freq.     128.01  E(vib)   ...       0.43 
freq.     133.40  E(vib)   ...       0.42 
freq.     140.68  E(vib)   ...       0.41 
freq.     148.67  E(vib)   ...       0.41 
freq.     151.92  E(vib)   ...       0.40 
freq.     156.22  E(vib)   ...       0.40 
freq.     162.05  E(vib)   ...       0.39 
freq.     163.29  E(vib)   ...       0.39 
freq.     168.36  E(vib)   ...       0.38 
freq.     177.44  E(vib)   ...       0.37 
freq.     179.82  E(vib)   ...       0.37 
freq.     184.36  E(vib)   ...       0.37 
freq.     186.26  E(vib)   ...       0.37 
freq.     200.97  E(vib)   ...       0.35 
freq.     207.63  E(vib)   ...       0.34 
freq.     211.28  E(vib)   ...       0.34 
freq.     212.81  E(vib)   ...       0.34 
freq.     223.15  E(vib)   ...       0.33 
freq.     226.02  E(vib)   ...       0.33 
freq.     240.45  E(vib)   ...       0.31 
freq.     243.67  E(vib)   ...       0.31 
freq.     251.49  E(vib)   ...       0.30 
freq.     253.59  E(vib)   ...       0.30 
freq.     256.90  E(vib)   ...       0.30 
freq.     262.98  E(vib)   ...       0.29 
freq.     264.10  E(vib)   ...       0.29 
freq.     268.24  E(vib)   ...       0.29 
freq.     278.82  E(vib)   ...       0.28 
freq.     281.52  E(vib)   ...       0.28 
freq.     289.68  E(vib)   ...       0.27 
freq.     292.34  E(vib)   ...       0.27 
freq.     299.19  E(vib)   ...       0.26 
freq.     300.10  E(vib)   ...       0.26 
freq.     302.81  E(vib)   ...       0.26 
freq.     310.06  E(vib)   ...       0.26 
freq.     316.79  E(vib)   ...       0.25 
freq.     319.97  E(vib)   ...       0.25 
freq.     324.40  E(vib)   ...       0.25 
freq.     326.85  E(vib)   ...       0.24 
freq.     332.24  E(vib)   ...       0.24 
freq.     344.37  E(vib)   ...       0.23 
freq.     348.06  E(vib)   ...       0.23 
freq.     352.44  E(vib)   ...       0.23 
freq.     361.16  E(vib)   ...       0.22 
freq.     367.47  E(vib)   ...       0.21 
freq.     376.28  E(vib)   ...       0.21 
freq.     386.22  E(vib)   ...       0.20 
freq.     388.76  E(vib)   ...       0.20 
freq.     392.82  E(vib)   ...       0.20 
freq.     408.78  E(vib)   ...       0.19 
freq.     409.80  E(vib)   ...       0.19 
freq.     413.85  E(vib)   ...       0.19 
freq.     422.52  E(vib)   ...       0.18 
freq.     425.11  E(vib)   ...       0.18 
freq.     429.83  E(vib)   ...       0.18 
freq.     438.19  E(vib)   ...       0.17 
freq.     444.21  E(vib)   ...       0.17 
freq.     450.43  E(vib)   ...       0.17 
freq.     455.57  E(vib)   ...       0.16 
freq.     460.86  E(vib)   ...       0.16 
freq.     475.76  E(vib)   ...       0.15 
freq.     482.88  E(vib)   ...       0.15 
freq.     486.37  E(vib)   ...       0.15 
freq.     491.90  E(vib)   ...       0.14 
freq.     494.44  E(vib)   ...       0.14 
freq.     499.93  E(vib)   ...       0.14 
freq.     501.89  E(vib)   ...       0.14 
freq.     506.70  E(vib)   ...       0.14 
freq.     507.17  E(vib)   ...       0.14 
freq.     514.58  E(vib)   ...       0.13 
freq.     522.25  E(vib)   ...       0.13 
freq.     540.03  E(vib)   ...       0.12 
freq.     540.36  E(vib)   ...       0.12 
freq.     546.79  E(vib)   ...       0.12 
freq.     550.02  E(vib)   ...       0.12 
freq.     563.66  E(vib)   ...       0.11 
freq.     575.30  E(vib)   ...       0.11 
freq.     583.83  E(vib)   ...       0.11 
freq.     592.54  E(vib)   ...       0.10 
freq.     601.34  E(vib)   ...       0.10 
freq.     617.15  E(vib)   ...       0.09 
freq.     624.68  E(vib)   ...       0.09 
freq.     630.02  E(vib)   ...       0.09 
freq.     634.07  E(vib)   ...       0.09 
freq.     661.85  E(vib)   ...       0.08 
freq.     666.19  E(vib)   ...       0.08 
freq.     675.92  E(vib)   ...       0.08 
freq.     691.19  E(vib)   ...       0.07 
freq.     703.52  E(vib)   ...       0.07 
freq.     705.78  E(vib)   ...       0.07 
freq.     719.21  E(vib)   ...       0.07 
freq.     730.47  E(vib)   ...       0.06 
freq.     732.90  E(vib)   ...       0.06 
freq.     734.46  E(vib)   ...       0.06 
freq.     736.71  E(vib)   ...       0.06 
freq.     750.31  E(vib)   ...       0.06 
freq.     755.04  E(vib)   ...       0.06 
freq.     758.44  E(vib)   ...       0.06 
freq.     765.88  E(vib)   ...       0.06 
freq.     769.70  E(vib)   ...       0.05 
freq.     784.44  E(vib)   ...       0.05 
freq.     796.66  E(vib)   ...       0.05 
freq.     815.98  E(vib)   ...       0.05 
freq.     821.39  E(vib)   ...       0.05 
freq.     835.96  E(vib)   ...       0.04 
freq.     837.98  E(vib)   ...       0.04 
freq.     849.63  E(vib)   ...       0.04 
freq.     869.04  E(vib)   ...       0.04 
freq.     870.39  E(vib)   ...       0.04 
freq.     872.50  E(vib)   ...       0.04 
freq.     883.41  E(vib)   ...       0.04 
freq.     888.53  E(vib)   ...       0.04 
freq.     893.32  E(vib)   ...       0.03 
freq.     896.30  E(vib)   ...       0.03 
freq.     899.80  E(vib)   ...       0.03 
freq.     902.43  E(vib)   ...       0.03 
freq.     907.03  E(vib)   ...       0.03 
freq.     910.11  E(vib)   ...       0.03 
freq.     914.68  E(vib)   ...       0.03 
freq.     916.79  E(vib)   ...       0.03 
freq.     917.46  E(vib)   ...       0.03 
freq.     927.19  E(vib)   ...       0.03 
freq.     932.14  E(vib)   ...       0.03 
freq.     945.47  E(vib)   ...       0.03 
freq.     950.17  E(vib)   ...       0.03 
freq.     958.02  E(vib)   ...       0.03 
freq.     977.83  E(vib)   ...       0.03 
freq.     983.44  E(vib)   ...       0.02 
freq.     984.68  E(vib)   ...       0.02 
freq.     990.89  E(vib)   ...       0.02 
freq.     992.18  E(vib)   ...       0.02 
freq.     999.25  E(vib)   ...       0.02 
freq.    1014.61  E(vib)   ...       0.02 
freq.    1017.38  E(vib)   ...       0.02 
freq.    1040.33  E(vib)   ...       0.02 
freq.    1046.13  E(vib)   ...       0.02 
freq.    1048.13  E(vib)   ...       0.02 
freq.    1051.22  E(vib)   ...       0.02 
freq.    1056.90  E(vib)   ...       0.02 
freq.    1058.15  E(vib)   ...       0.02 
freq.    1061.80  E(vib)   ...       0.02 
freq.    1068.70  E(vib)   ...       0.02 
freq.    1075.67  E(vib)   ...       0.02 
freq.    1082.99  E(vib)   ...       0.02 
freq.    1092.65  E(vib)   ...       0.02 
freq.    1094.06  E(vib)   ...       0.02 
freq.    1096.21  E(vib)   ...       0.02 
freq.    1099.79  E(vib)   ...       0.02 
freq.    1102.17  E(vib)   ...       0.02 
freq.    1106.69  E(vib)   ...       0.02 
freq.    1112.95  E(vib)   ...       0.01 
freq.    1115.67  E(vib)   ...       0.01 
freq.    1134.97  E(vib)   ...       0.01 
freq.    1137.72  E(vib)   ...       0.01 
freq.    1144.72  E(vib)   ...       0.01 
freq.    1147.96  E(vib)   ...       0.01 
freq.    1150.59  E(vib)   ...       0.01 
freq.    1164.98  E(vib)   ...       0.01 
freq.    1165.72  E(vib)   ...       0.01 
freq.    1167.82  E(vib)   ...       0.01 
freq.    1172.48  E(vib)   ...       0.01 
freq.    1179.83  E(vib)   ...       0.01 
freq.    1183.31  E(vib)   ...       0.01 
freq.    1192.48  E(vib)   ...       0.01 
freq.    1200.50  E(vib)   ...       0.01 
freq.    1214.82  E(vib)   ...       0.01 
freq.    1218.46  E(vib)   ...       0.01 
freq.    1220.45  E(vib)   ...       0.01 
freq.    1223.83  E(vib)   ...       0.01 
freq.    1234.70  E(vib)   ...       0.01 
freq.    1235.37  E(vib)   ...       0.01 
freq.    1240.32  E(vib)   ...       0.01 
freq.    1241.46  E(vib)   ...       0.01 
freq.    1243.74  E(vib)   ...       0.01 
freq.    1245.28  E(vib)   ...       0.01 
freq.    1252.25  E(vib)   ...       0.01 
freq.    1257.26  E(vib)   ...       0.01 
freq.    1263.11  E(vib)   ...       0.01 
freq.    1270.58  E(vib)   ...       0.01 
freq.    1272.87  E(vib)   ...       0.01 
freq.    1274.64  E(vib)   ...       0.01 
freq.    1283.08  E(vib)   ...       0.01 
freq.    1285.07  E(vib)   ...       0.01 
freq.    1287.21  E(vib)   ...       0.01 
freq.    1289.08  E(vib)   ...       0.01 
freq.    1294.93  E(vib)   ...       0.01 
freq.    1301.20  E(vib)   ...       0.01 
freq.    1301.63  E(vib)   ...       0.01 
freq.    1310.70  E(vib)   ...       0.01 
freq.    1312.21  E(vib)   ...       0.01 
freq.    1312.99  E(vib)   ...       0.01 
freq.    1319.13  E(vib)   ...       0.01 
freq.    1326.68  E(vib)   ...       0.01 
freq.    1328.37  E(vib)   ...       0.01 
freq.    1330.36  E(vib)   ...       0.01 
freq.    1337.70  E(vib)   ...       0.01 
freq.    1339.68  E(vib)   ...       0.01 
freq.    1346.17  E(vib)   ...       0.01 
freq.    1347.62  E(vib)   ...       0.01 
freq.    1355.14  E(vib)   ...       0.01 
freq.    1357.74  E(vib)   ...       0.01 
freq.    1359.35  E(vib)   ...       0.01 
freq.    1377.43  E(vib)   ...       0.01 
freq.    1399.87  E(vib)   ...       0.00 
freq.    1418.41  E(vib)   ...       0.00 
freq.    1424.50  E(vib)   ...       0.00 
freq.    1437.92  E(vib)   ...       0.00 
freq.    1447.98  E(vib)   ...       0.00 
freq.    1452.39  E(vib)   ...       0.00 
freq.    1495.07  E(vib)   ...       0.00 
freq.    1513.31  E(vib)   ...       0.00 
freq.    1516.42  E(vib)   ...       0.00 
freq.    1524.50  E(vib)   ...       0.00 
freq.    1569.53  E(vib)   ...       0.00 
freq.    1598.65  E(vib)   ...       0.00 
freq.    1628.67  E(vib)   ...       0.00 
freq.    2761.92  E(vib)   ...       0.00 
freq.    2855.14  E(vib)   ...       0.00 
freq.    2858.58  E(vib)   ...       0.00 
freq.    2889.84  E(vib)   ...       0.00 
freq.    2914.03  E(vib)   ...       0.00 
freq.    2916.65  E(vib)   ...       0.00 
freq.    2921.26  E(vib)   ...       0.00 
freq.    2930.56  E(vib)   ...       0.00 
freq.    2934.32  E(vib)   ...       0.00 
freq.    2936.23  E(vib)   ...       0.00 
freq.    2944.21  E(vib)   ...       0.00 
freq.    2948.40  E(vib)   ...       0.00 
freq.    2954.63  E(vib)   ...       0.00 
freq.    2995.59  E(vib)   ...       0.00 
freq.    3006.63  E(vib)   ...       0.00 
freq.    3012.85  E(vib)   ...       0.00 
freq.    3021.97  E(vib)   ...       0.00 
freq.    3069.81  E(vib)   ...       0.00 
freq.    3095.98  E(vib)   ...       0.00 
freq.    3105.20  E(vib)   ...       0.00 
freq.    3134.93  E(vib)   ...       0.00 
freq.    3178.85  E(vib)   ...       0.00 
freq.    3201.10  E(vib)   ...       0.00 
freq.    3306.57  E(vib)   ...       0.00 
freq.    3346.69  E(vib)   ...       0.00 
freq.    3362.13  E(vib)   ...       0.00 
freq.    3399.05  E(vib)   ...       0.00 
freq.    3424.05  E(vib)   ...       0.00 
freq.    3444.27  E(vib)   ...       0.00 
freq.    3490.54  E(vib)   ...       0.00 
freq.    3494.61  E(vib)   ...       0.00 
freq.    3568.49  E(vib)   ...       0.00 
freq.    3572.09  E(vib)   ...       0.00 
freq.    3602.40  E(vib)   ...       0.00 
freq.    3626.11  E(vib)   ...       0.00 
freq.    3627.07  E(vib)   ...       0.00 

------------
INNER ENERGY
------------

The inner energy is: U= E(el) + E(ZPE) + E(vib) + E(rot) + E(trans)
    E(el)   - is the total energy from the electronic structure calculation
              = E(kin-el) + E(nuc-el) + E(el-el) + E(nuc-nuc)
    E(ZPE)  - the the zero temperature vibrational energy from the frequency calculation
    E(vib)  - the the finite temperature correction to E(ZPE) due to population
              of excited vibrational states
    E(rot)  - is the rotational thermal energy
    E(trans)- is the translational thermal energy

Summary of contributions to the inner energy U:
Electronic energy                ...   -194.49877395 Eh
Zero point energy                ...      0.66396700 Eh     416.64 kcal/mol
Thermal vibrational correction   ...      0.05554733 Eh      34.86 kcal/mol
Thermal rotational correction    ...      0.00141627 Eh       0.89 kcal/mol
Thermal translational correction ...      0.00141627 Eh       0.89 kcal/mol
-----------------------------------------------------------------------
Total thermal energy                   -193.77642708 Eh


Summary of corrections to the electronic energy:
(perhaps to be used in another calculation)
Total thermal correction                  0.05837988 Eh      36.63 kcal/mol
Non-thermal (ZPE) correction              0.66396700 Eh     416.64 kcal/mol
-----------------------------------------------------------------------
Total correction                          0.72234687 Eh     453.28 kcal/mol


--------
ENTHALPY
--------

The enthalpy is H = U + kB*T
                kB is Boltzmann's constant
Total free energy                 ...   -193.77642708 Eh 
Thermal Enthalpy correction       ...      0.00094421 Eh       0.59 kcal/mol
-----------------------------------------------------------------------
Total Enthalpy                    ...   -193.77548287 Eh


Note: Only C1 symmetry has been detected, increase convergence thresholds 
      if your molecule has a higher symmetry. Symmetry factor of 1.0 is   
      used for the rotational entropy correction. 
 

Note: Rotational entropy computed according to Herzberg 
Infrared and Raman Spectra, Chapter V,1, Van Nostrand Reinhold, 1945 
Point Group:  C1, Symmetry Number:   1  
Rotational constants in cm-1:     0.001873     0.001111     0.000816 

Vibrational entropy computed according to the QRRHO of S. Grimme
Chem.Eur.J. 2012 18 9955


-------
ENTROPY
-------

The entropy contributions are T*S = T*(S(el)+S(vib)+S(rot)+S(trans))
     S(el)   - electronic entropy
     S(vib)  - vibrational entropy
     S(rot)  - rotational entropy
     S(trans)- translational entropy
The entropies will be listed as multiplied by the temperature to get
units of energy

Electronic entropy                ...      0.00000000 Eh      0.00 kcal/mol
Vibrational entropy               ...      0.10039271 Eh     63.00 kcal/mol
Rotational entropy                ...      0.01904424 Eh     11.95 kcal/mol
Translational entropy             ...      0.02200570 Eh     13.81 kcal/mol
-----------------------------------------------------------------------
Final entropy term                ...      0.14144265 Eh     88.76 kcal/mol

In case the symmetry of your molecule has not been determined correctly
or in case you have a reason to use a different symmetry number we print 
out the resulting rotational entropy values for sn=1,12 :
 --------------------------------------------------------
|  sn= 1 | S(rot)=       0.01904424 Eh     11.95 kcal/mol|
|  sn= 2 | S(rot)=       0.01838979 Eh     11.54 kcal/mol|
|  sn= 3 | S(rot)=       0.01800696 Eh     11.30 kcal/mol|
|  sn= 4 | S(rot)=       0.01773533 Eh     11.13 kcal/mol|
|  sn= 5 | S(rot)=       0.01752464 Eh     11.00 kcal/mol|
|  sn= 6 | S(rot)=       0.01735250 Eh     10.89 kcal/mol|
|  sn= 7 | S(rot)=       0.01720695 Eh     10.80 kcal/mol|
|  sn= 8 | S(rot)=       0.01708088 Eh     10.72 kcal/mol|
|  sn= 9 | S(rot)=       0.01696967 Eh     10.65 kcal/mol|
|  sn=10 | S(rot)=       0.01687019 Eh     10.59 kcal/mol|
|  sn=11 | S(rot)=       0.01678020 Eh     10.53 kcal/mol|
|  sn=12 | S(rot)=       0.01669804 Eh     10.48 kcal/mol|
 --------------------------------------------------------


-------------------
GIBBS FREE ENERGY
-------------------

The Gibbs free energy is G = H - T*S

Total enthalpy                    ...   -193.77548287 Eh 
Total entropy correction          ...     -0.14144265 Eh    -88.76 kcal/mol
-----------------------------------------------------------------------
Final Gibbs free energy         ...   -193.91692552 Eh

For completeness - the Gibbs free energy minus the electronic energy
G-E(el)                           ...      0.58184843 Eh    365.11 kcal/mol



Timings for individual modules:

Sum of individual times         ...     1720.590 sec (=  28.677 min)
Geometry relaxation             ...       17.570 sec (=   0.293 min)   1.0 %
Numerical frequency calculation ...     1690.066 sec (=  28.168 min)  98.2 %
XTB module                      ...       12.955 sec (=   0.216 min)   0.8 %
                             ****ORCA TERMINATED NORMALLY****
TOTAL RUN TIME: 0 days 0 hours 28 minutes 51 seconds 81 msec
