
                                 *****************
                                 * O   R   C   A *
                                 *****************

                                            #,                                       
                                            ###                                      
                                            ####                                     
                                            #####                                    
                                            ######                                   
                                           ########,                                 
                                     ,,################,,,,,                         
                               ,,#################################,,                 
                          ,,##########################################,,             
                       ,#########################################, ''#####,          
                    ,#############################################,,   '####,        
                  ,##################################################,,,,####,       
                ,###########''''           ''''###############################       
              ,#####''   ,,,,##########,,,,          '''####'''          '####       
            ,##' ,,,,###########################,,,                        '##       
           ' ,,###''''                  '''############,,,                           
         ,,##''                                '''############,,,,        ,,,,,,###''
      ,#''                                            '''#######################'''  
     '                                                          ''''####''''         
             ,#######,   #######,   ,#######,      ##                                
            ,#'     '#,  ##    ##  ,#'     '#,    #''#        ######   ,####,        
            ##       ##  ##   ,#'  ##            #'  '#       #        #'  '#        
            ##       ##  #######   ##           ,######,      #####,   #    #        
            '#,     ,#'  ##    ##  '#,     ,#' ,#      #,         ##   #,  ,#        
             '#######'   ##     ##  '#######'  #'      '#     #####' # '####'        



                  #######################################################
                  #                        -***-                        #
                  #          Department of theory and spectroscopy      #
                  #    Directorship and core code : Frank Neese         #
                  #        Max Planck Institute fuer Kohlenforschung    #
                  #                Kaiser Wilhelm Platz 1               #
                  #                 D-45470 Muelheim/Ruhr               #
                  #                      Germany                        #
                  #                                                     #
                  #                  All rights reserved                #
                  #                        -***-                        #
                  #######################################################


                         Program Version 5.0.3 -  RELEASE  -


 With contributions from (in alphabetic order):
   Daniel Aravena         : Magnetic Suceptibility
   Michael Atanasov       : Ab Initio Ligand Field Theory (pilot matlab implementation)
   Alexander A. Auer      : GIAO ZORA, VPT2 properties, NMR spectrum
   Ute Becker             : Parallelization
   Giovanni Bistoni       : ED, misc. LED, open-shell LED, HFLD
   Martin Brehm           : Molecular dynamics
   Dmytro Bykov           : SCF Hessian
   Vijay G. Chilkuri      : MRCI spin determinant printing, contributions to CSF-ICE
   Dipayan Datta          : RHF DLPNO-CCSD density
   Achintya Kumar Dutta   : EOM-CC, STEOM-CC
   Dmitry Ganyushin       : Spin-Orbit,Spin-Spin,Magnetic field MRCI
   Miquel Garcia          : C-PCM and meta-GGA Hessian, CC/C-PCM, Gaussian charge scheme
   Yang Guo               : DLPNO-NEVPT2, F12-NEVPT2, CIM, IAO-localization
   Andreas Hansen         : Spin unrestricted coupled pair/coupled cluster methods
   Benjamin Helmich-Paris : MC-RPA, TRAH-SCF, COSX integrals
   Lee Huntington         : MR-EOM, pCC
   Robert Izsak           : Overlap fitted RIJCOSX, COSX-SCS-MP3, EOM
   Marcus Kettner         : VPT2
   Christian Kollmar      : KDIIS, OOCD, Brueckner-CCSD(T), CCSD density, CASPT2, CASPT2-K
   Simone Kossmann        : Meta GGA functionals, TD-DFT gradient, OOMP2, MP2 Hessian
   Martin Krupicka        : Initial AUTO-CI
   Lucas Lang             : DCDCAS
   Marvin Lechner         : AUTO-CI (C++ implementation), FIC-MRCC
   Dagmar Lenk            : GEPOL surface, SMD
   Dimitrios Liakos       : Extrapolation schemes; Compound Job, initial MDCI parallelization
   Dimitrios Manganas     : Further ROCIS development; embedding schemes
   Dimitrios Pantazis     : SARC Basis sets
   Anastasios Papadopoulos: AUTO-CI, single reference methods and gradients
   Taras Petrenko         : DFT Hessian,TD-DFT gradient, ASA, ECA, R-Raman, ABS, FL, XAS/XES, NRVS
   Peter Pinski           : DLPNO-MP2, DLPNO-MP2 Gradient
   Christoph Reimann      : Effective Core Potentials
   Marius Retegan         : Local ZFS, SOC
   Christoph Riplinger    : Optimizer, TS searches, QM/MM, DLPNO-CCSD(T), (RO)-DLPNO pert. Triples
   Tobias Risthaus        : Range-separated hybrids, TD-DFT gradient, RPA, STAB
   Michael Roemelt        : Original ROCIS implementation
   Masaaki Saitow         : Open-shell DLPNO-CCSD energy and density
   Barbara Sandhoefer     : DKH picture change effects
   Avijit Sen             : IP-ROCIS
   Kantharuban Sivalingam : CASSCF convergence, NEVPT2, FIC-MRCI
   Bernardo de Souza      : ESD, SOC TD-DFT
   Georgi Stoychev        : AutoAux, RI-MP2 NMR, DLPNO-MP2 response
   Willem Van den Heuvel  : Paramagnetic NMR
   Boris Wezisla          : Elementary symmetry handling
   Frank Wennmohs         : Technical directorship


 We gratefully acknowledge several colleagues who have allowed us to
 interface, adapt or use parts of their codes:
   Stefan Grimme, W. Hujo, H. Kruse, P. Pracht,  : VdW corrections, initial TS optimization,
                  C. Bannwarth, S. Ehlert          DFT functionals, gCP, sTDA/sTD-DF
   Ed Valeev, F. Pavosevic, A. Kumar             : LibInt (2-el integral package), F12 methods
   Garnet Chan, S. Sharma, J. Yang, R. Olivares  : DMRG
   Ulf Ekstrom                                   : XCFun DFT Library
   Mihaly Kallay                                 : mrcc  (arbitrary order and MRCC methods)
   Jiri Pittner, Ondrej Demel                    : Mk-CCSD
   Frank Weinhold                                : gennbo (NPA and NBO analysis)
   Christopher J. Cramer and Donald G. Truhlar   : smd solvation model
   Lars Goerigk                                  : TD-DFT with DH, B97 family of functionals
   V. Asgeirsson, H. Jonsson                     : NEB implementation
   FAccTs GmbH                                   : IRC, NEB, NEB-TS, DLPNO-Multilevel, CI-OPT
                                                   MM, QMMM, 2- and 3-layer-ONIOM, Crystal-QMMM,
                                                   LR-CPCM, SF, NACMEs, symmetry and pop. for TD-DFT,
                                                   nearIR, NL-DFT gradient (VV10), updates on ESD,
                                                   ML-optimized integration grids
   S Lehtola, MJT Oliveira, MAL Marques          : LibXC Library
   Liviu Ungur et al                             : ANISO software


 Your calculation uses the libint2 library for the computation of 2-el integrals
 For citations please refer to: http://libint.valeyev.net

 Your ORCA version has been built with support for libXC version: 5.1.0
 For citations please refer to: https://tddft.org/programs/libxc/

 This ORCA versions uses:
   CBLAS   interface :  Fast vector & matrix operations
   LAPACKE interface :  Fast linear algebra routines
   SCALAPACK package :  Parallel linear algebra routines
   Shared memory     :  Shared parallel matrices
   BLAS/LAPACK       :  OpenBLAS 0.3.15  USE64BITINT DYNAMIC_ARCH NO_AFFINITY Haswell SINGLE_THREADED
        Core in use  :  Haswell
   Copyright (c) 2011-2014, The OpenBLAS Project


Your calculation utilizes the semiempirical GFN2-xTB method
Please cite in your paper:
C. Bannwarth, Ehlert S., S. Grimme,  J. Chem. Theory Comput., 15, (2019), 1652.
   

================================================================================

================================================================================
                                        WARNINGS
                       Please study these warnings very carefully!
================================================================================


WARNING: Geometry Optimization
  ===> : Switching off AutoStart
         For restart on a previous wavefunction, please use MOREAD

WARNING: Found dipole moment calculation with XTB calculation
  ===> : Switching off dipole moment calculation


WARNING: TRAH-SCF for XTB is not implemented!
  ===> : Turning TRAH off!

================================================================================
                                       INPUT FILE
================================================================================
NAME = /tmp/13.inp
|  1> ! XTB2 opt numfreq
|  2> * XYZ 0 1
|  3> O 0.3351 0.7734 2.5885
|  4> C 1.1122 0.5087 1.6764
|  5> O 2.4333 0.3106 1.9579
|  6> C 3.2976 -0.2227 0.9347
|  7> C 4.7220 -0.2653 1.5126
|  8> O 5.5437 -1.1771 0.8060
|  9> P 6.6918 -0.6024 -0.1445
| 10> O 6.2730 0.3529 -1.2099
| 11> O 7.3944 -1.9220 -0.6949
| 12> O 7.7945 -0.0299 0.8550
| 13> C 3.2163 0.6268 -0.3428
| 14> O 3.6895 -0.1302 -1.4646
| 15> C 1.7795 1.1217 -0.6161
| 16> O 1.7531 2.5335 -0.3293
| 17> C 0.7180 0.3378 0.1932
| 18> O 0.7684 -1.0783 -0.1132
| 19> C -0.7539 0.8323 -0.0750
| 20> O -0.8581 2.2122 0.2983
| 21> O -1.5961 -0.0237 0.7108
| 22> C -3.0009 0.2603 0.6953
| 23> C -3.7350 -1.0523 0.9924
| 24> O -5.1325 -0.8279 1.0978
| 25> P -6.0720 -2.1224 0.9645
| 26> O -6.0469 -2.8372 -0.3409
| 27> O -7.5198 -1.5667 1.3413
| 28> O -5.7224 -3.0314 2.2265
| 29> C -3.4849 0.9198 -0.6131
| 30> O -3.3308 2.3520 -0.4962
| 31> C -2.6548 0.4609 -1.8143
| 32> O -2.9418 -0.9127 -2.0885
| 33> C -1.1394 0.6615 -1.5860
| 34> O -0.6941 1.7839 -2.3670
| 35> H 3.0101 -1.2613 0.7326
| 36> H 5.1696 0.7352 1.5455
| 37> H 4.6829 -0.6094 2.5519
| 38> H 6.8371 -2.3707 -1.3570
| 39> H 8.5403 0.3568 0.3586
| 40> H 3.8688 1.5055 -0.2435
| 41> H 4.5569 0.2597 -1.7150
| 42> H 1.5876 1.0151 -1.6881
| 43> H 0.8181 2.8155 -0.2361
| 44> H 0.0319 -1.4825 0.3937
| 45> H -1.7757 2.4909 0.1088
| 46> H -3.1963 0.9520 1.5243
| 47> H -3.5212 -1.8009 0.2220
| 48> H -3.3744 -1.4680 1.9409
| 49> H -7.9635 -1.1949 0.5573
| 50> H -6.2031 -3.8770 2.1877
| 51> H -4.5489 0.7267 -0.7880
| 52> H -4.0890 2.6645 0.0390
| 53> H -2.9712 1.0342 -2.6956
| 54> H -2.5847 -1.1106 -2.9749
| 55> H -0.6299 -0.2168 -1.9975
| 56> H -1.0843 2.5899 -1.9765
| 57> *
| 58> 
| 59>                          ****END OF INPUT****
================================================================================

                       *****************************
                       * Geometry Optimization Run *
                       *****************************

Geometry optimization settings:
Update method            Update   .... BFGS
Choice of coordinates    CoordSys .... Z-matrix Internals
Initial Hessian          InHess   .... Almoef's Model

Convergence Tolerances:
Energy Change            TolE     ....  5.0000e-06 Eh
Max. Gradient            TolMAXG  ....  3.0000e-04 Eh/bohr
RMS Gradient             TolRMSG  ....  1.0000e-04 Eh/bohr
Max. Displacement        TolMAXD  ....  4.0000e-03 bohr
RMS Displacement         TolRMSD  ....  2.0000e-03 bohr
Strict Convergence                ....  False
------------------------------------------------------------------------------
                        ORCA OPTIMIZATION COORDINATE SETUP
------------------------------------------------------------------------------

The optimization will be done in new redundant internal coordinates
Making redundant internal coordinates   ...  (new redundants) done
Evaluating the initial hessian          ...  (Almloef) done
Evaluating the coordinates              ...  done
Calculating the B-matrix                .... done
Calculating the G-matrix                .... done
Diagonalizing the G-matrix              .... done
Small eigenvalue found = 1.931e-03
Small eigenvalue found = 3.329e-03
Small eigenvalue found = 7.229e-03
Small eigenvalue found = 9.683e-03
Small eigenvalue found = 1.148e-02
Small eigenvalue found = 1.671e-02
Small eigenvalue found = 2.332e-02
Small eigenvalue found = 2.567e-02
The first mode is                       ....  147
The number of degrees of freedom        ....  156

    -----------------------------------------------------------------
                    Redundant Internal Coordinates


    -----------------------------------------------------------------
         Definition                    Initial Value    Approx d2E/dq
    -----------------------------------------------------------------
      1. B(C   1,O   0)                  1.2271         1.017901   
      2. B(O   2,C   1)                  1.3652         0.612958   
      3. B(C   3,O   2)                  1.4417         0.462879   
      4. B(C   4,C   3)                  1.5378         0.363079   
      5. B(O   5,C   4)                  1.4163         0.508095   
      6. B(P   6,O   5)                  1.5975         0.877784   
      7. B(O   7,P   6)                  1.4910         1.297887   
      8. B(O   8,P   6)                  1.5931         0.891979   
      9. B(O   9,P   6)                  1.5946         0.887086   
     10. B(C  10,C   3)                  1.5363         0.365007   
     11. B(O  11,C  10)                  1.4337         0.476658   
     12. B(C  12,C  10)                  1.5440         0.354815   
     13. B(O  13,C  12)                  1.4409         0.464197   
     14. B(C  14,C  12)                  1.5480         0.349694   
     15. B(C  14,C   1)                  1.5442         0.354617   
     16. B(O  15,C  14)                  1.4497         0.449321   
     17. B(C  16,C  14)                  1.5757         0.315795   
     18. B(O  17,C  16)                  1.4333         0.477311   
     19. B(O  18,C  16)                  1.4351         0.474152   
     20. B(C  19,O  18)                  1.4333         0.477295   
     21. B(C  20,C  19)                  1.5330         0.369480   
     22. B(O  21,C  20)                  1.4193         0.502454   
     23. B(P  22,O  21)                  1.6050         0.853658   
     24. B(O  23,P  22)                  1.4885         1.309832   
     25. B(O  24,P  22)                  1.5959         0.882805   
     26. B(O  25,P  22)                  1.5941         0.888681   
     27. B(C  26,C  19)                  1.5431         0.356044   
     28. B(O  27,C  26)                  1.4452         0.456882   
     29. B(C  28,C  26)                  1.5305         0.372842   
     30. B(O  29,C  28)                  1.4298         0.483476   
     31. B(C  30,C  16)                  1.5687         0.324035   
     32. B(C  30,C  28)                  1.5456         0.352802   
     33. B(O  31,C  30)                  1.4381         0.469017   
     34. B(H  32,C   3)                  1.0964         0.351675   
     35. B(H  33,C   4)                  1.0966         0.351535   
     36. B(H  34,C   4)                  1.0955         0.352922   
     37. B(H  35,O   8)                  0.9748         0.492389   
     38. B(H  36,O   9)                  0.9758         0.490652   
     39. B(H  37,C  10)                  1.0990         0.348430   
     40. B(H  38,O  11)                  0.9834         0.477100   
     41. B(H  39,C  12)                  1.0942         0.354527   
     42. B(H  40,O  13)                  0.9810         0.481285   
     43. B(H  41,O  15)                  0.9812         0.480995   
     44. B(H  42,O  17)                  0.9775         0.487519   
     45. B(H  43,C  19)                  1.0972         0.350687   
     46. B(H  44,C  20)                  1.0953         0.353188   
     47. B(H  45,C  20)                  1.0966         0.351498   
     48. B(H  46,O  24)                  0.9746         0.492881   
     49. B(H  47,O  25)                  0.9735         0.494878   
     50. B(H  48,C  26)                  1.0954         0.352984   
     51. B(H  49,O  27)                  0.9793         0.484427   
     52. B(H  50,C  28)                  1.0979         0.349749   
     53. B(H  51,O  29)                  0.9759         0.490447   
     54. B(H  52,C  30)                  1.0956         0.352771   
     55. B(H  53,O  31)                  0.9769         0.488612   
     56. A(O   0,C   1,O   2)          119.3959         0.467736   
     57. A(O   0,C   1,C  14)          125.1791         0.426389   
     58. A(O   2,C   1,C  14)          115.4059         0.389797   
     59. A(C   1,O   2,C   3)          119.1753         0.405865   
     60. A(O   2,C   3,C   4)          107.3884         0.372784   
     61. A(C  10,C   3,H  32)          110.8932         0.321835   
     62. A(O   2,C   3,C  10)          110.7261         0.373124   
     63. A(C   4,C   3,C  10)          112.1376         0.360160   
     64. A(C   4,C   3,H  32)          106.6133         0.321556   
     65. A(O   2,C   3,H  32)          108.9067         0.332675   
     66. A(C   3,C   4,O   5)          111.5771         0.378834   
     67. A(H  33,C   4,H  34)          105.8249         0.288830   
     68. A(C   3,C   4,H  34)          109.4008         0.321743   
     69. A(O   5,C   4,H  34)          106.9664         0.338069   
     70. A(O   5,C   4,H  33)          111.4415         0.337847   
     71. A(C   3,C   4,H  33)          111.3520         0.321535   
     72. A(C   4,O   5,P   6)          118.8307         0.470407   
     73. A(O   5,P   6,O   8)          102.9760         0.559718   
     74. A(O   8,P   6,O   9)          102.0617         0.560842   
     75. A(O   7,P   6,O   9)          114.3366         0.602645   
     76. A(O   5,P   6,O   7)          116.9874         0.601421   
     77. A(O   7,P   6,O   8)          114.0621         0.603285   
     78. A(O   5,P   6,O   9)          104.6676         0.559132   
     79. A(P   6,O   8,H  35)          111.3333         0.416595   
     80. A(P   6,O   9,H  36)          110.6066         0.415926   
     81. A(C   3,C  10,C  12)          111.9417         0.358750   
     82. A(C   3,C  10,O  11)          109.9511         0.375017   
     83. A(O  11,C  10,H  37)          107.2725         0.333784   
     84. A(C  12,C  10,H  37)          108.1929         0.319863   
     85. A(O  11,C  10,C  12)          109.7480         0.373189   
     86. A(C   3,C  10,H  37)          109.6068         0.321347   
     87. A(C  10,O  11,H  38)          106.3207         0.348768   
     88. A(O  13,C  12,C  14)          112.3061         0.370562   
     89. A(C  10,C  12,C  14)          112.5355         0.356146   
     90. A(O  13,C  12,H  39)          106.6927         0.333278   
     91. A(C  10,C  12,O  13)          107.2100         0.371490   
     92. A(C  10,C  12,H  39)          107.7807         0.320771   
     93. A(C  14,C  12,H  39)          110.0348         0.320010   
     94. A(C  12,O  13,H  40)          108.5433         0.347726   
     95. A(O  15,C  14,C  16)          107.6402         0.362118   
     96. A(C  12,C  14,C  16)          113.1188         0.349194   
     97. A(C   1,C  14,C  16)          111.5438         0.350019   
     98. A(C  12,C  14,O  15)          111.1196         0.368494   
     99. A(C   1,C  14,O  15)          107.5917         0.369380   
    100. A(C   1,C  14,C  12)          105.7276         0.356113   
    101. A(C  14,O  15,H  41)          105.4920         0.345791   
    102. A(O  17,C  16,O  18)          112.8909         0.390060   
    103. A(C  14,C  16,O  18)          105.5335         0.365463   
    104. A(C  14,C  16,O  17)          109.0085         0.365879   
    105. A(O  18,C  16,C  30)          108.5571         0.367080   
    106. A(O  17,C  16,C  30)          109.7442         0.367498   
    107. A(C  14,C  16,C  30)          111.0585         0.344745   
    108. A(C  16,O  17,H  42)          106.9919         0.350122   
    109. A(C  16,O  18,C  19)          116.8129         0.390058   
    110. A(C  20,C  19,C  26)          112.3382         0.359707   
    111. A(O  18,C  19,C  26)          113.6579         0.373498   
    112. A(C  26,C  19,H  43)          108.3819         0.320381   
    113. A(C  20,C  19,H  43)          107.9431         0.322329   
    114. A(O  18,C  19,H  43)          106.9351         0.334216   
    115. A(O  18,C  19,C  20)          107.3129         0.375893   
    116. A(O  21,C  20,H  45)          108.6319         0.337214   
    117. A(C  19,C  20,H  45)          109.5572         0.322451   
    118. A(O  21,C  20,H  44)          110.6401         0.337483   
    119. A(H  44,C  20,H  45)          106.5655         0.288859   
    120. A(C  19,C  20,H  44)          110.8194         0.322705   
    121. A(C  19,C  20,O  21)          110.5192         0.379248   
    122. A(C  20,O  21,P  22)          116.2739         0.467052   
    123. A(O  24,P  22,O  25)          102.1573         0.559931   
    124. A(O  23,P  22,O  25)          114.6300         0.603921   
    125. A(O  21,P  22,O  25)          105.4134         0.556366   
    126. A(O  23,P  22,O  24)          112.9278         0.603148   
    127. A(O  21,P  22,O  24)          103.3312         0.555665   
    128. A(O  21,P  22,O  23)          116.7608         0.599256   
    129. A(P  22,O  24,H  46)          110.8508         0.415903   
    130. A(P  22,O  25,H  47)          110.8230         0.416694   
    131. A(O  27,C  26,C  28)          107.6249         0.373652   
    132. A(C  19,C  26,C  28)          111.5432         0.360262   
    133. A(C  28,C  26,H  48)          110.4039         0.323154   
    134. A(O  27,C  26,H  48)          106.9283         0.332161   
    135. A(C  19,C  26,O  27)          108.7546         0.370697   
    136. A(C  19,C  26,H  48)          111.3890         0.320724   
    137. A(C  26,O  27,H  49)          106.1347         0.347178   
    138. A(O  29,C  28,C  30)          110.4766         0.373737   
    139. A(C  26,C  28,C  30)          112.1435         0.359701   
    140. A(C  26,C  28,O  29)          109.2498         0.377320   
    141. A(C  30,C  28,H  50)          109.4720         0.319763   
    142. A(O  29,C  28,H  50)          106.8493         0.334782   
    143. A(C  26,C  28,H  50)          108.4884         0.322667   
    144. A(C  28,O  29,H  51)          107.1907         0.351237   
    145. A(C  28,C  30,O  31)          108.9465         0.371787   
    146. A(C  16,C  30,O  31)          111.2251         0.366395   
    147. A(C  16,C  30,C  28)          113.4127         0.351240   
    148. A(O  31,C  30,H  52)          106.1235         0.333575   
    149. A(C  28,C  30,H  52)          107.2437         0.320213   
    150. A(C  16,C  30,H  52)          109.5589         0.315804   
    151. A(C  30,O  31,H  53)          107.6481         0.349220   
    152. D(C   3,O   2,C   1,C  14)     -9.1061         0.027521   
    153. D(C   3,O   2,C   1,O   0)    169.3860         0.027521   
    154. D(C  10,C   3,O   2,C   1)     54.3958         0.016881   
    155. D(H  32,C   3,O   2,C   1)    -67.7889         0.016881   
    156. D(C   4,C   3,O   2,C   1)    177.1270         0.016881   
    157. D(H  34,C   4,C   3,H  32)    -75.4546         0.010564   
    158. D(O   5,C   4,C   3,O   2)    159.3081         0.010564   
    159. D(O   5,C   4,C   3,C  10)    -78.8375         0.010564   
    160. D(H  34,C   4,C   3,O   2)     41.1462         0.010564   
    161. D(O   5,C   4,C   3,H  32)     42.7073         0.010564   
    162. D(H  33,C   4,C   3,H  32)    167.9238         0.010564   
    163. D(H  33,C   4,C   3,O   2)    -75.4754         0.010564   
    164. D(H  34,C   4,C   3,C  10)    163.0007         0.010564   
    165. D(H  33,C   4,C   3,C  10)     46.3790         0.010564   
    166. D(P   6,O   5,C   4,C   3)    108.2270         0.020431   
    167. D(P   6,O   5,C   4,H  34)   -132.1616         0.020431   
    168. D(P   6,O   5,C   4,H  33)    -16.9397         0.020431   
    169. D(O   8,P   6,O   5,C   4)    178.1745         0.013325   
    170. D(O   9,P   6,O   5,C   4)     71.7962         0.013325   
    171. D(O   7,P   6,O   5,C   4)    -55.8893         0.013325   
    172. D(H  35,O   8,P   6,O   7)    -54.0511         0.013740   
    173. D(H  35,O   8,P   6,O   9)   -177.8940         0.013740   
    174. D(H  35,O   8,P   6,O   5)     73.7481         0.013740   
    175. D(H  36,O   9,P   6,O   7)    -50.0374         0.013596   
    176. D(H  36,O   9,P   6,O   5)   -179.3249         0.013596   
    177. D(H  36,O   9,P   6,O   8)     73.6209         0.013596   
    178. D(C  12,C  10,C   3,O   2)    -38.0599         0.010669   
    179. D(O  11,C  10,C   3,C   4)     79.7533         0.010669   
    180. D(C  12,C  10,C   3,C   4)   -157.9867         0.010669   
    181. D(O  11,C  10,C   3,O   2)   -160.3198         0.010669   
    182. D(O  11,C  10,C   3,H  32)    -39.3040         0.010669   
    183. D(C  12,C  10,C   3,H  32)     82.9559         0.010669   
    184. D(H  37,C  10,C   3,C   4)    -37.9326         0.010669   
    185. D(H  37,C  10,C   3,H  32)   -156.9900         0.010669   
    186. D(H  37,C  10,C   3,O   2)     81.9942         0.010669   
    187. D(H  38,O  11,C  10,C   3)   -108.6442         0.017918   
    188. D(H  38,O  11,C  10,C  12)    127.8049         0.017918   
    189. D(H  38,O  11,C  10,H  37)     10.4810         0.017918   
    190. D(H  39,C  12,C  10,O  11)    -15.5803         0.010122   
    191. D(C  14,C  12,C  10,H  37)   -137.3273         0.010122   
    192. D(H  39,C  12,C  10,H  37)    101.1667         0.010122   
    193. D(C  14,C  12,C  10,O  11)    105.9256         0.010122   
    194. D(C  14,C  12,C  10,C   3)    -16.4503         0.010122   
    195. D(H  39,C  12,C  10,C   3)   -137.9562         0.010122   
    196. D(O  13,C  12,C  10,H  37)    -13.3600         0.010122   
    197. D(O  13,C  12,C  10,O  11)   -130.1071         0.010122   
    198. D(O  13,C  12,C  10,C   3)    107.5170         0.010122   
    199. D(H  40,O  13,C  12,H  39)     81.2967         0.016979   
    200. D(H  40,O  13,C  12,C  14)    -39.3416         0.016979   
    201. D(H  40,O  13,C  12,C  10)   -163.4490         0.016979   
    202. D(O  15,C  14,C  12,H  39)     61.3973         0.009854   
    203. D(O  15,C  14,C  12,O  13)   -179.9126         0.009854   
    204. D(O  15,C  14,C  12,C  10)    -58.8165         0.009854   
    205. D(C   1,C  14,C  12,O  13)    -63.4656         0.009854   
    206. D(C   1,C  14,C  12,C  10)     57.6306         0.009854   
    207. D(C  16,C  14,C   1,O   2)   -169.8407         0.009480   
    208. D(C  16,C  14,C   1,O   0)     11.7667         0.009480   
    209. D(C   1,C  14,C  12,H  39)    177.8443         0.009854   
    210. D(O  15,C  14,C   1,O   2)     72.3223         0.009480   
    211. D(O  15,C  14,C   1,O   0)   -106.0703         0.009480   
    212. D(C  16,C  14,C  12,C  10)    179.9767         0.009854   
    213. D(C  12,C  14,C   1,O   2)    -46.4925         0.009480   
    214. D(C  12,C  14,C   1,O   0)    135.1149         0.009480   
    215. D(C  16,C  14,C  12,H  39)    -59.8096         0.009854   
    216. D(C  16,C  14,C  12,O  13)     58.8805         0.009854   
    217. D(H  41,O  15,C  14,C  16)    -52.0406         0.015899   
    218. D(H  41,O  15,C  14,C  12)   -176.4087         0.015899   
    219. D(H  41,O  15,C  14,C   1)     68.2946         0.015899   
    220. D(C  30,C  16,C  14,O  15)    -62.5277         0.008200   
    221. D(C  30,C  16,C  14,C  12)     60.6247         0.008200   
    222. D(C  30,C  16,C  14,C   1)    179.6645         0.008200   
    223. D(O  18,C  16,C  14,C   1)    -62.8853         0.008200   
    224. D(O  17,C  16,C  14,O  15)    176.4402         0.008200   
    225. D(O  17,C  16,C  14,C  12)    -60.4075         0.008200   
    226. D(O  18,C  16,C  14,C  12)    178.0748         0.008200   
    227. D(O  17,C  16,C  14,C   1)     58.6324         0.008200   
    228. D(O  18,C  16,C  14,O  15)     54.9224         0.008200   
    229. D(H  42,O  17,C  16,C  30)     57.3911         0.017968   
    230. D(H  42,O  17,C  16,O  18)    -63.8460         0.017968   
    231. D(H  42,O  17,C  16,C  14)    179.2231         0.017968   
    232. D(C  19,O  18,C  16,C  30)    -63.8225         0.017727   
    233. D(C  19,O  18,C  16,O  17)     58.0855         0.017727   
    234. D(C  19,O  18,C  16,C  14)    177.0531         0.017727   
    235. D(H  43,C  19,O  18,C  16)    -90.7247         0.017967   
    236. D(C  26,C  19,O  18,C  16)     28.8321         0.017967   
    237. D(C  20,C  19,O  18,C  16)    153.6658         0.017967   
    238. D(H  45,C  20,C  19,C  26)   -178.6291         0.010915   
    239. D(H  45,C  20,C  19,O  18)     55.7440         0.010915   
    240. D(H  44,C  20,C  19,H  43)   -176.5035         0.010915   
    241. D(H  44,C  20,C  19,C  26)     64.0622         0.010915   
    242. D(H  44,C  20,C  19,O  18)    -61.5646         0.010915   
    243. D(O  21,C  20,C  19,H  43)     60.4731         0.010915   
    244. D(O  21,C  20,C  19,C  26)    -58.9613         0.010915   
    245. D(H  45,C  20,C  19,H  43)    -59.1948         0.010915   
    246. D(O  21,C  20,C  19,O  18)    175.4119         0.010915   
    247. D(P  22,O  21,C  20,H  45)    -77.5732         0.019965   
    248. D(P  22,O  21,C  20,H  44)     39.0752         0.019965   
    249. D(P  22,O  21,C  20,C  19)    162.2029         0.019965   
    250. D(O  25,P  22,O  21,C  20)     65.0273         0.012639   
    251. D(O  24,P  22,O  21,C  20)    171.8752         0.012639   
    252. D(O  23,P  22,O  21,C  20)    -63.5222         0.012639   
    253. D(H  46,O  24,P  22,O  25)   -164.2630         0.013471   
    254. D(H  46,O  24,P  22,O  23)    -40.6204         0.013471   
    255. D(H  46,O  24,P  22,O  21)     86.4405         0.013471   
    256. D(H  47,O  25,P  22,O  24)     76.6509         0.013643   
    257. D(H  47,O  25,P  22,O  23)    -45.8397         0.013643   
    258. D(H  47,O  25,P  22,O  21)   -175.6474         0.013643   
    259. D(H  48,C  26,C  19,H  43)    -86.3519         0.010187   
    260. D(H  48,C  26,C  19,C  20)     32.8260         0.010187   
    261. D(H  48,C  26,C  19,O  18)    154.9173         0.010187   
    262. D(C  28,C  26,C  19,H  43)    149.7877         0.010187   
    263. D(C  28,C  26,C  19,C  20)    -91.0344         0.010187   
    264. D(C  28,C  26,C  19,O  18)     31.0569         0.010187   
    265. D(O  27,C  26,C  19,H  43)     31.2444         0.010187   
    266. D(O  27,C  26,C  19,C  20)    150.4223         0.010187   
    267. D(O  27,C  26,C  19,O  18)    -87.4864         0.010187   
    268. D(H  49,O  27,C  26,H  48)     41.3910         0.016442   
    269. D(H  49,O  27,C  26,C  28)    160.0157         0.016442   
    270. D(H  49,O  27,C  26,C  19)    -79.0026         0.016442   
    271. D(H  50,C  28,C  26,C  19)   -174.2639         0.011102   
    272. D(C  30,C  28,C  26,H  48)   -177.6452         0.011102   
    273. D(C  30,C  28,C  26,O  27)     65.9863         0.011102   
    274. D(C  30,C  28,C  26,C  19)    -53.2300         0.011102   
    275. D(O  29,C  28,C  26,H  48)    -54.8145         0.011102   
    276. D(O  29,C  28,C  26,O  27)   -171.1831         0.011102   
    277. D(H  50,C  28,C  26,O  27)    -55.0476         0.011102   
    278. D(O  29,C  28,C  26,C  19)     69.6006         0.011102   
    279. D(H  50,C  28,C  26,H  48)     61.3210         0.011102   
    280. D(H  51,O  29,C  28,H  50)     48.7042         0.018446   
    281. D(H  51,O  29,C  28,C  30)    -70.3006         0.018446   
    282. D(H  51,O  29,C  28,C  26)    165.8798         0.018446   
    283. D(H  52,C  30,C  28,H  50)    -99.7386         0.010016   
    284. D(H  52,C  30,C  28,O  29)     17.6616         0.010016   
    285. D(H  52,C  30,C  28,C  26)    139.7961         0.010016   
    286. D(O  31,C  30,C  28,H  50)     14.7169         0.010016   
    287. D(O  31,C  30,C  28,O  29)    132.1171         0.010016   
    288. D(O  31,C  30,C  28,C  26)   -105.7484         0.010016   
    289. D(C  16,C  30,C  28,H  50)    139.1716         0.010016   
    290. D(C  16,C  30,C  28,O  29)   -103.4281         0.010016   
    291. D(C  16,C  30,C  28,C  26)     18.7064         0.010016   
    292. D(H  52,C  30,C  16,O  18)    -83.1761         0.008583   
    293. D(H  52,C  30,C  16,O  17)    153.0145         0.008583   
    294. D(H  52,C  30,C  16,C  14)     32.4161         0.008583   
    295. D(O  31,C  30,C  16,O  18)    159.8140         0.008583   
    296. D(O  31,C  30,C  16,O  17)     36.0046         0.008583   
    297. D(O  31,C  30,C  16,C  14)    -84.5937         0.008583   
    298. D(C  28,C  30,C  16,O  18)     36.6024         0.008583   
    299. D(C  28,C  30,C  16,O  17)    -87.2070         0.008583   
    300. D(C  28,C  30,C  16,C  14)    152.1947         0.008583   
    301. D(H  53,O  31,C  30,H  52)   -175.8818         0.017338   
    302. D(H  53,O  31,C  30,C  28)     68.9368         0.017338   
    303. D(H  53,O  31,C  30,C  16)    -56.7961         0.017338   
    -----------------------------------------------------------------

Number of atoms                         .... 54
Number of degrees of freedom            .... 303

         *************************************************************
         *                GEOMETRY OPTIMIZATION CYCLE   1            *
         *************************************************************
---------------------------------
CARTESIAN COORDINATES (ANGSTROEM)
---------------------------------
  O     0.335100    0.773400    2.588500
  C     1.112200    0.508700    1.676400
  O     2.433300    0.310600    1.957900
  C     3.297600   -0.222700    0.934700
  C     4.722000   -0.265300    1.512600
  O     5.543700   -1.177100    0.806000
  P     6.691800   -0.602400   -0.144500
  O     6.273000    0.352900   -1.209900
  O     7.394400   -1.922000   -0.694900
  O     7.794500   -0.029900    0.855000
  C     3.216300    0.626800   -0.342800
  O     3.689500   -0.130200   -1.464600
  C     1.779500    1.121700   -0.616100
  O     1.753100    2.533500   -0.329300
  C     0.718000    0.337800    0.193200
  O     0.768400   -1.078300   -0.113200
  C    -0.753900    0.832300   -0.075000
  O    -0.858100    2.212200    0.298300
  O    -1.596100   -0.023700    0.710800
  C    -3.000900    0.260300    0.695300
  C    -3.735000   -1.052300    0.992400
  O    -5.132500   -0.827900    1.097800
  P    -6.072000   -2.122400    0.964500
  O    -6.046900   -2.837200   -0.340900
  O    -7.519800   -1.566700    1.341300
  O    -5.722400   -3.031400    2.226500
  C    -3.484900    0.919800   -0.613100
  O    -3.330800    2.352000   -0.496200
  C    -2.654800    0.460900   -1.814300
  O    -2.941800   -0.912700   -2.088500
  C    -1.139400    0.661500   -1.586000
  O    -0.694100    1.783900   -2.367000
  H     3.010100   -1.261300    0.732600
  H     5.169600    0.735200    1.545500
  H     4.682900   -0.609400    2.551900
  H     6.837100   -2.370700   -1.357000
  H     8.540300    0.356800    0.358600
  H     3.868800    1.505500   -0.243500
  H     4.556900    0.259700   -1.715000
  H     1.587600    1.015100   -1.688100
  H     0.818100    2.815500   -0.236100
  H     0.031900   -1.482500    0.393700
  H    -1.775700    2.490900    0.108800
  H    -3.196300    0.952000    1.524300
  H    -3.521200   -1.800900    0.222000
  H    -3.374400   -1.468000    1.940900
  H    -7.963500   -1.194900    0.557300
  H    -6.203100   -3.877000    2.187700
  H    -4.548900    0.726700   -0.788000
  H    -4.089000    2.664500    0.039000
  H    -2.971200    1.034200   -2.695600
  H    -2.584700   -1.110600   -2.974900
  H    -0.629900   -0.216800   -1.997500
  H    -1.084300    2.589900   -1.976500

----------------------------
CARTESIAN COORDINATES (A.U.)
----------------------------
  NO LB    ZA    FRAG    MASS        X           Y           Z
   0 O   8.0000    0    15.999    0.633247    1.461514    4.891556
   1 C   6.0000    0    12.011    2.101753    0.961304    3.167937
   2 O   8.0000    0    15.999    4.598271    0.586949    3.699895
   3 C   6.0000    0    12.011    6.231561   -0.420842    1.766327
   4 C   6.0000    0    12.011    8.923287   -0.501344    2.858400
   5 O   8.0000    0    15.999   10.476075   -2.224397    1.523119
   6 P  15.0000    0    30.974   12.645669   -1.138371   -0.273065
   7 O   8.0000    0    15.999   11.854252    0.666884   -2.286380
   8 O   8.0000    0    15.999   13.973391   -3.632054   -1.313171
   9 O   8.0000    0    15.999   14.729470   -0.056503    1.615716
  10 C   6.0000    0    12.011    6.077926    1.184480   -0.647798
  11 O   8.0000    0    15.999    6.972145   -0.246042   -2.767693
  12 C   6.0000    0    12.011    3.362768    2.119706   -1.164260
  13 O   8.0000    0    15.999    3.312879    4.787621   -0.622287
  14 C   6.0000    0    12.011    1.356823    0.638349    0.365095
  15 O   8.0000    0    15.999    1.452066   -2.037692   -0.213917
  16 C   6.0000    0    12.011   -1.424665    1.572819   -0.141729
  17 O   8.0000    0    15.999   -1.621574    4.180452    0.563705
  18 O   8.0000    0    15.999   -3.016192   -0.044787    1.343217
  19 C   6.0000    0    12.011   -5.670879    0.491896    1.313927
  20 C   6.0000    0    12.011   -7.058127   -1.988559    1.875364
  21 O   8.0000    0    15.999   -9.699019   -1.564504    2.074541
  22 P  15.0000    0    30.974  -11.474417   -4.010755    1.822641
  23 O   8.0000    0    15.999  -11.426985   -5.361531   -0.644208
  24 O   8.0000    0    15.999  -14.210363   -2.960634    2.534690
  25 O   8.0000    0    15.999  -10.813769   -5.728516    4.207475
  26 C   6.0000    0    12.011   -6.585507    1.738170   -1.158591
  27 O   8.0000    0    15.999   -6.294300    4.444636   -0.937682
  28 C   6.0000    0    12.011   -5.016845    0.870975   -3.428530
  29 O   8.0000    0    15.999   -5.559196   -1.724753   -3.946693
  30 C   6.0000    0    12.011   -2.153154    1.250054   -2.997106
  31 O   8.0000    0    15.999   -1.311659    3.371082   -4.472982
  32 H   1.0000    0     1.008    5.688265   -2.383512    1.384413
  33 H   1.0000    0     1.008    9.769128    1.389327    2.920572
  34 H   1.0000    0     1.008    8.849399   -1.151599    4.822392
  35 H   1.0000    0     1.008   12.920247   -4.479974   -2.564358
  36 H   1.0000    0     1.008   16.138828    0.674254    0.677656
  37 H   1.0000    0     1.008    7.310972    2.844983   -0.460148
  38 H   1.0000    0     1.008    8.611293    0.490762   -3.240880
  39 H   1.0000    0     1.008    3.000129    1.918261   -3.190047
  40 H   1.0000    0     1.008    1.545985    5.320524   -0.446164
  41 H   1.0000    0     1.008    0.060282   -2.801519    0.743985
  42 H   1.0000    0     1.008   -3.355587    4.707119    0.205602
  43 H   1.0000    0     1.008   -6.040132    1.799019    2.880510
  44 H   1.0000    0     1.008   -6.654104   -3.403208    0.419519
  45 H   1.0000    0     1.008   -6.376692   -2.774118    3.667769
  46 H   1.0000    0     1.008  -15.048834   -2.258034    1.053144
  47 H   1.0000    0     1.008  -11.722160   -7.326468    4.134154
  48 H   1.0000    0     1.008   -8.596175    1.373264   -1.489104
  49 H   1.0000    0     1.008   -7.727090    5.035175    0.073699
  50 H   1.0000    0     1.008   -5.614754    1.954355   -5.093946
  51 H   1.0000    0     1.008   -4.884375   -2.098730   -5.621746
  52 H   1.0000    0     1.008   -1.190338   -0.409693   -3.774728
  53 H   1.0000    0     1.008   -2.049030    4.894202   -3.735044

      -----------------------------------------------------------      
     |                   =====================                   |     
     |                           x T B                           |     
     |                   =====================                   |     
     |                         S. Grimme                         |     
     |          Mulliken Center for Theoretical Chemistry        |     
     |                    University of Bonn                     |     
      -----------------------------------------------------------      

   * xtb version 6.5.1 (579679a) compiled by 'ehlert@majestix' on 2022-07-11

   xtb is free software: you can redistribute it and/or modify it under
   the terms of the GNU Lesser General Public License as published by
   the Free Software Foundation, either version 3 of the License, or
   (at your option) any later version.
   
   xtb is distributed in the hope that it will be useful,
   but WITHOUT ANY WARRANTY; without even the implied warranty of
   MERCHANTABILITY or FITNESS FOR A PARTICULAR PURPOSE.  See the
   GNU Lesser General Public License for more details.
   
   Cite this work as:
   * C. Bannwarth, E. Caldeweyher, S. Ehlert, A. Hansen, P. Pracht,
     J. Seibert, S. Spicher, S. Grimme, WIREs Comput. Mol. Sci., 2020, 11,
     e01493. DOI: 10.1002/wcms.1493
   
   for GFN2-xTB:
   * C. Bannwarth, S. Ehlert and S. Grimme., J. Chem. Theory Comput., 2019,
     15, 1652-1671. DOI: 10.1021/acs.jctc.8b01176
   for GFN1-xTB:
   * S. Grimme, C. Bannwarth, P. Shushkov, J. Chem. Theory Comput., 2017,
     13, 1989-2009. DOI: 10.1021/acs.jctc.7b00118
   for GFN0-xTB:
   * P. Pracht, E. Caldeweyher, S. Ehlert, S. Grimme, ChemRxiv, 2019, preprint.
     DOI: 10.26434/chemrxiv.8326202.v1
   for GFN-FF:
   * S. Spicher and S. Grimme, Angew. Chem. Int. Ed., 2020, 59, 15665-15673.
     DOI: 10.1002/anie.202004239
   
   for ALPB and GBSA implicit solvation:
   * S. Ehlert, M. Stahn, S. Spicher, S. Grimme, J. Chem. Theory Comput.,
     2021, 17, 4250-4261. DOI: 10.1021/acs.jctc.1c00471
   
   for DFT-D4:
   * E. Caldeweyher, C. Bannwarth and S. Grimme, J. Chem. Phys., 2017,
     147, 034112. DOI: 10.1063/1.4993215
   * E. Caldeweyher, S. Ehlert, A. Hansen, H. Neugebauer, S. Spicher,
     C. Bannwarth and S. Grimme, J. Chem. Phys., 2019, 150, 154122.
     DOI: 10.1063/1.5090222
   * E. Caldeweyher, J.-M. Mewes, S. Ehlert and S. Grimme, Phys. Chem. Chem. Phys.
     2020, 22, 8499-8512. DOI: 10.1039/D0CP00502A
   
   for sTDA-xTB:
   * S. Grimme and C. Bannwarth, J. Chem. Phys., 2016, 145, 054103.
     DOI: 10.1063/1.4959605
   
   in the mass-spec context:
   * V. Asgeirsson, C. Bauer and S. Grimme, Chem. Sci., 2017, 8, 4879.
     DOI: 10.1039/c7sc00601b
   * J. Koopman and S. Grimme, ACS Omega 2019, 4, 12, 15120-15133.
     DOI: 10.1021/acsomega.9b02011
   
   for metadynamics refer to:
   * S. Grimme, J. Chem. Theory Comput., 2019, 155, 2847-2862
     DOI: 10.1021/acs.jctc.9b00143
   
   for SPH calculations refer to:
   * S. Spicher and S. Grimme, J. Chem. Theory Comput., 2021, 17, 1701-1714
     DOI: 10.1021/acs.jctc.0c01306
   
   with help from (in alphabetical order)
   P. Atkinson, C. Bannwarth, F. Bohle, G. Brandenburg, E. Caldeweyher
   M. Checinski, S. Dohm, S. Ehlert, S. Ehrlich, I. Gerasimov, C. Hölzer
   A. Katbashev, J. Koopman, C. Lavigne, S. Lehtola, F. März, M. Müller,
   F. Musil, H. Neugebauer, J. Pisarek, C. Plett, P. Pracht, F. Pultar,
   J. Seibert, P. Shushkov, S. Spicher, M. Stahn, M. Steiner, T. Strunk,
   J. Stückrath, T. Rose, and J. Unsleber
   
 * started run on 2023/12/06 at 18:55:12.652     

           -------------------------------------------------
          |                Calculation Setup                |
           -------------------------------------------------

          program call               : otool_xtb /tmp/13_XTB.xyz --grad -c 0 -u 0 -P 1 --namespace /tmp/13 --input /tmp/13_XTB.input.tmp --acc 1.000000
          calculation namespace      : /tmp/13
          coordinate file            : /tmp/13_XTB.xyz
          omp threads                :                     1

   ID    Z sym.   atoms
    1    8 O      1, 3, 6, 8-10, 12, 14, 16, 18, 19, 22, 24-26, 28, 30, 32
    2    6 C      2, 4, 5, 11, 13, 15, 17, 20, 21, 27, 29, 31
    3   15 P      7, 23
    4    1 H      33-54

           -------------------------------------------------
          |                 G F N 2 - x T B                 |
           -------------------------------------------------

        Reference                      10.1021/acs.jctc.8b01176
      * Hamiltonian:
        H0-scaling (s, p, d)           1.850000    2.230000    2.230000
        zeta-weighting                 0.500000
      * Dispersion:
        s8                             2.700000
        a1                             0.520000
        a2                             5.000000
        s9                             5.000000
      * Repulsion:
        kExp                           1.500000    1.000000
        rExp                           1.000000
      * Coulomb:
        alpha                          2.000000
        third order                    shell-resolved
        anisotropic                    true
        a3                             3.000000
        a5                             4.000000
        cn-shift                       1.200000
        cn-exp                         4.000000
        max-rad                        5.000000


          ...................................................
          :                      SETUP                      :
          :.................................................:
          :  # basis functions                 162          :
          :  # atomic orbitals                 160          :
          :  # shells                           88          :
          :  # electrons                       188          :
          :  max. iterations                   250          :
          :  Hamiltonian                  GFN2-xTB          :
          :  restarted?                      false          :
          :  GBSA solvation                  false          :
          :  PC potential                    false          :
          :  electronic temp.          300.0000000     K    :
          :  accuracy                    1.0000000          :
          :  -> integral cutoff          0.2500000E+02      :
          :  -> integral neglect         0.1000000E-07      :
          :  -> SCF convergence          0.1000000E-05 Eh   :
          :  -> wf. convergence          0.1000000E-03 e    :
          :  Broyden damping             0.4000000          :
          ...................................................

 iter      E             dE          RMSdq      gap      omega  full diag
   1   -115.9713261 -0.115971E+03  0.664E+00    4.39       0.0  T
   2   -116.1055949 -0.134269E+00  0.378E+00    3.73       1.0  T
   3   -116.1218741 -0.162792E-01  0.109E+00    4.14       1.0  T
   4   -116.1376690 -0.157949E-01  0.488E-01    3.74       1.0  T
   5   -116.1394724 -0.180338E-02  0.195E-01    3.90       1.0  T
   6   -116.1398657 -0.393273E-03  0.705E-02    3.84       1.0  T
   7   -116.1398861 -0.204275E-04  0.299E-02    3.85       1.0  T
   8   -116.1398950 -0.891104E-05  0.118E-02    3.85       1.2  T
   9   -116.1398961 -0.106161E-05  0.491E-03    3.85       2.8  T
  10   -116.1398963 -0.181512E-06  0.141E-03    3.85       9.7  T
  11   -116.1398963 -0.147782E-07  0.637E-04    3.85      21.4  T
  12   -116.1398963 -0.219082E-08  0.177E-04    3.85      77.0  T

   *** convergence criteria satisfied after 12 iterations ***

         #    Occupation            Energy/Eh            Energy/eV
      -------------------------------------------------------------
         1        2.0000           -0.7541971             -20.5227
       ...           ...                  ...                  ...
        88        2.0000           -0.4399983             -11.9730
        89        2.0000           -0.4368733             -11.8879
        90        2.0000           -0.4298891             -11.6979
        91        2.0000           -0.4237948             -11.5320
        92        2.0000           -0.4137146             -11.2577
        93        2.0000           -0.4074753             -11.0880
        94        2.0000           -0.3937074             -10.7133 (HOMO)
        95                         -0.2522618              -6.8644 (LUMO)
        96                         -0.1035917              -2.8189
        97                         -0.0918002              -2.4980
        98                         -0.0780531              -2.1239
        99                         -0.0655217              -1.7829
       ...                                ...                  ...
       160                          1.1940821              32.4926
      -------------------------------------------------------------
                  HL-Gap            0.1414457 Eh            3.8489 eV
             Fermi-level           -0.3229846 Eh           -8.7889 eV

 SCC (total)                   0 d,  0 h,  0 min,  0.119 sec
 SCC setup                      ...        0 min,  0.000 sec (  0.362%)
 Dispersion                     ...        0 min,  0.001 sec (  0.570%)
 classical contributions        ...        0 min,  0.000 sec (  0.133%)
 integral evaluation            ...        0 min,  0.015 sec ( 12.914%)
 iterations                     ...        0 min,  0.050 sec ( 41.708%)
 molecular gradient             ...        0 min,  0.052 sec ( 43.841%)
 printout                       ...        0 min,  0.001 sec (  0.453%)

         :::::::::::::::::::::::::::::::::::::::::::::::::::::
         ::                     SUMMARY                     ::
         :::::::::::::::::::::::::::::::::::::::::::::::::::::
         :: total energy            -115.454140048784 Eh    ::
         :: gradient norm              0.125464940124 Eh/a0 ::
         :: HOMO-LUMO gap              3.848932677314 eV    ::
         ::.................................................::
         :: SCC energy              -116.139896278621 Eh    ::
         :: -> isotropic ES            0.447119456993 Eh    ::
         :: -> anisotropic ES         -0.014816880998 Eh    ::
         :: -> anisotropic XC         -0.015321312838 Eh    ::
         :: -> dispersion             -0.062318927920 Eh    ::
         :: repulsion energy           0.685146174337 Eh    ::
         :: add. restraining           0.000000000000 Eh    ::
         :: total charge               0.000000000000 e     ::
         :::::::::::::::::::::::::::::::::::::::::::::::::::::


Property printout bound to 'properties.out'

           -------------------------------------------------
          | TOTAL ENERGY             -115.454140048784 Eh   |
          | GRADIENT NORM               0.125464940124 Eh/α |
          | HOMO-LUMO GAP               3.848932677314 eV   |
           -------------------------------------------------

------------------------------------------------------------------------
 * finished run on 2023/12/06 at 18:55:12.794     
------------------------------------------------------------------------
 total:
 * wall-time:     0 d,  0 h,  0 min,  0.142 sec
 *  cpu-time:     0 d,  0 h,  0 min,  0.140 sec
 * ratio c/w:     0.988 speedup
 SCF:
 * wall-time:     0 d,  0 h,  0 min,  0.120 sec
 *  cpu-time:     0 d,  0 h,  0 min,  0.120 sec
 * ratio c/w:     1.002 speedup


-------------------------   --------------------
FINAL SINGLE POINT ENERGY      -115.454140048780
-------------------------   --------------------

------------------------------------------------------------------------------
                         ORCA GEOMETRY RELAXATION STEP
------------------------------------------------------------------------------

Reading the OPT-File                    .... done
Getting information on internals        .... done
Copying old internal coords+grads       .... done
Making the new internal coordinates     .... (new redundants).... done
Validating the new internal coordinates .... (new redundants).... done
Calculating the B-matrix                .... done
Calculating the G,G- and P matrices     .... done
Transforming gradient to internals      .... done
Projecting the internal gradient        .... done
Number of atoms                         ....  54
Number of internal coordinates          .... 303
Current Energy                          ....  -115.454140049 Eh
Current gradient norm                   ....     0.125464940 Eh/bohr
Maximum allowed component of the step   ....  0.300
Current trust radius                    ....  0.300
Evaluating the initial hessian          ....  (Almloef) done
Projecting the Hessian                  .... done
Forming the augmented Hessian           .... done
Diagonalizing the augmented Hessian     .... done
Last element of RFO vector              ....  0.910035489
Lowest eigenvalues of augmented Hessian:
 -0.031396167  0.008200351  0.010249175  0.010732026  0.010910304
Length of the computed step             ....  0.455510091
Warning: the length of the step is outside the trust region - taking restricted step instead
The input lambda is                     ....    -0.031396
   iter:   1  x=   -0.050642  g=    6.104660 f(x)=     0.117489
   iter:   2  x=   -0.067793  g=    2.475840 f(x)=     0.042463
   iter:   3  x=   -0.075288  g=    1.401848 f(x)=     0.010507
   iter:   4  x=   -0.076185  g=    1.141930 f(x)=     0.001025
   iter:   5  x=   -0.076196  g=    1.115801 f(x)=     0.000012
   iter:   6  x=   -0.076196  g=    1.115498 f(x)=     0.000000
   iter:   7  x=   -0.076196  g=    1.115498 f(x)=     0.000000
The output lambda is                    ....    -0.076196 (7 iterations)
The final length of the internal step   ....  0.300000000
Converting the step to cartesian space:
 Initial RMS(Int)=    0.0172345497
Transforming coordinates:
 Iter   0:  RMS(Cart)=    0.1242421948 RMS(Int)=    0.6236505719
 Iter   1:  RMS(Cart)=    0.0061993852 RMS(Int)=    0.0028565271
 Iter   2:  RMS(Cart)=    0.0007090393 RMS(Int)=    0.0001174416
 Iter   3:  RMS(Cart)=    0.0000920552 RMS(Int)=    0.0000482073
 Iter   4:  RMS(Cart)=    0.0000118038 RMS(Int)=    0.0000026045
 Iter   5:  RMS(Cart)=    0.0000015521 RMS(Int)=    0.0000008514
 Iter   6:  RMS(Cart)=    0.0000002048 RMS(Int)=    0.0000000553
 Iter   7:  RMS(Cart)=    0.0000000269 RMS(Int)=    0.0000000153
done
Storing new coordinates                 .... done

                                .--------------------.
          ----------------------|Geometry convergence|-------------------------
          Item                value                   Tolerance       Converged
          ---------------------------------------------------------------------
          RMS gradient        0.0064149503            0.0001000000      NO
          MAX gradient        0.0489680478            0.0003000000      NO
          RMS step            0.0172345497            0.0020000000      NO
          MAX step            0.0685347506            0.0040000000      NO
          ........................................................
          Max(Bonds)      0.0257      Max(Angles)    1.70
          Max(Dihed)        3.93      Max(Improp)    0.00
          ---------------------------------------------------------------------

The optimization has not yet converged - more geometry cycles are needed


    ---------------------------------------------------------------------------
                         Redundant Internal Coordinates
                            (Angstroem and degrees)

        Definition                    Value    dE/dq     Step     New-Value
    ----------------------------------------------------------------------------
     1. B(C   1,O   0)                1.2271  0.048968 -0.0237    1.2035   
     2. B(O   2,C   1)                1.3652  0.023378 -0.0198    1.3454   
     3. B(C   3,O   2)                1.4417  0.010422 -0.0109    1.4308   
     4. B(C   4,C   3)                1.5378  0.001938 -0.0023    1.5354   
     5. B(O   5,C   4)                1.4163  0.002001 -0.0018    1.4145   
     6. B(P   6,O   5)                1.5975  0.004883 -0.0027    1.5947   
     7. B(O   7,P   6)                1.4910  0.023717 -0.0091    1.4819   
     8. B(O   8,P   6)                1.5931  0.006601 -0.0036    1.5895   
     9. B(O   9,P   6)                1.5946  0.006775 -0.0037    1.5909   
    10. B(C  10,C   3)                1.5363  0.004657 -0.0042    1.5321   
    11. B(O  11,C  10)                1.4337  0.014844 -0.0142    1.4195   
    12. B(C  12,C  10)                1.5440  0.009367 -0.0087    1.5354   
    13. B(O  13,C  12)                1.4409  0.021772 -0.0213    1.4196   
    14. B(C  14,C  12)                1.5480  0.008545 -0.0096    1.5384   
    15. B(C  14,C   1)                1.5442  0.006256 -0.0096    1.5346   
    16. B(O  15,C  14)                1.4497  0.025553 -0.0257    1.4240   
    17. B(C  16,C  14)                1.5757  0.017440 -0.0235    1.5522   
    18. B(O  17,C  16)                1.4333  0.026869 -0.0257    1.4076   
    19. B(O  18,C  16)                1.4351  0.015239 -0.0166    1.4185   
    20. B(C  19,O  18)                1.4333  0.008492 -0.0086    1.4247   
    21. B(C  20,C  19)                1.5330  0.006054 -0.0072    1.5258   
    22. B(O  21,C  20)                1.4193  0.002274 -0.0021    1.4172   
    23. B(P  22,O  21)                1.6050  0.009484 -0.0054    1.5996   
    24. B(O  23,P  22)                1.4885  0.028812 -0.0110    1.4775   
    25. B(O  24,P  22)                1.5959  0.003956 -0.0022    1.5937   
    26. B(O  25,P  22)                1.5941  0.005467 -0.0030    1.5911   
    27. B(C  26,C  19)                1.5431  0.004896 -0.0045    1.5386   
    28. B(O  27,C  26)                1.4452  0.006748 -0.0067    1.4385   
    29. B(C  28,C  26)                1.5305  0.004198 -0.0042    1.5263   
    30. B(O  29,C  28)                1.4298  0.011182 -0.0106    1.4192   
    31. B(C  30,C  16)                1.5687  0.008891 -0.0124    1.5564   
    32. B(C  30,C  28)                1.5456 -0.002736  0.0045    1.5501   
    33. B(O  31,C  30)                1.4381  0.020047 -0.0195    1.4186   
    34. B(H  32,C   3)                1.0964  0.000173 -0.0002    1.0962   
    35. B(H  33,C   4)                1.0966  0.001451 -0.0018    1.0948   
    36. B(H  34,C   4)                1.0955 -0.000544  0.0007    1.0962   
    37. B(H  35,O   8)                0.9748  0.015303 -0.0142    0.9606   
    38. B(H  36,O   9)                0.9758  0.016313 -0.0152    0.9606   
    39. B(H  37,C  10)                1.0990  0.002856 -0.0036    1.0954   
    40. B(H  38,O  11)                0.9834  0.010083 -0.0096    0.9738   
    41. B(H  39,C  12)                1.0942 -0.002427  0.0030    1.0972   
    42. B(H  40,O  13)                0.9810  0.010415 -0.0099    0.9712   
    43. B(H  41,O  15)                0.9812  0.011398 -0.0108    0.9704   
    44. B(H  42,O  17)                0.9775  0.000252 -0.0002    0.9773   
    45. B(H  43,C  19)                1.0972 -0.003188  0.0040    1.1012   
    46. B(H  44,C  20)                1.0953  0.000003 -0.0000    1.0953   
    47. B(H  45,C  20)                1.0966  0.000919 -0.0011    1.0954   
    48. B(H  46,O  24)                0.9746  0.015847 -0.0147    0.9598   
    49. B(H  47,O  25)                0.9735  0.014970 -0.0139    0.9596   
    50. B(H  48,C  26)                1.0954  0.002052 -0.0025    1.0929   
    51. B(H  49,O  27)                0.9793  0.012841 -0.0121    0.9671   
    52. B(H  50,C  28)                1.0979 -0.000710  0.0009    1.0988   
    53. B(H  51,O  29)                0.9759  0.010874 -0.0102    0.9657   
    54. B(H  52,C  30)                1.0956  0.001392 -0.0017    1.0939   
    55. B(H  53,O  31)                0.9769  0.009052 -0.0085    0.9684   
    56. A(O   0,C   1,O   2)          119.40  0.000564    0.05    119.44   
    57. A(O   0,C   1,C  14)          125.18 -0.000540    0.18    125.36   
    58. A(O   2,C   1,C  14)          115.41  0.000016   -0.23    115.18   
    59. A(C   1,O   2,C   3)          119.18 -0.001430    0.12    119.30   
    60. A(O   2,C   3,C   4)          107.39  0.009106   -1.70    105.69   
    61. A(C  10,C   3,H  32)          110.89  0.007069   -1.36    109.54   
    62. A(O   2,C   3,C  10)          110.73 -0.003533    0.73    111.45   
    63. A(C   4,C   3,C  10)          112.14 -0.007272    1.22    113.36   
    64. A(C   4,C   3,H  32)          106.61 -0.003293    0.76    107.38   
    65. A(O   2,C   3,H  32)          108.91 -0.001925    0.32    109.22   
    66. A(C   3,C   4,O   5)          111.58 -0.003175    0.31    111.89   
    67. A(H  33,C   4,H  34)          105.82 -0.003665    0.80    106.62   
    68. A(C   3,C   4,H  34)          109.40  0.006376   -1.03    108.37   
    69. A(O   5,C   4,H  34)          106.97 -0.002018    0.33    107.30   
    70. A(O   5,C   4,H  33)          111.44  0.003227   -0.50    110.94   
    71. A(C   3,C   4,H  33)          111.35 -0.000659    0.10    111.45   
    72. A(C   4,O   5,P   6)          118.83  0.000319   -0.03    118.80   
    73. A(O   5,P   6,O   8)          102.98  0.004061   -0.37    102.61   
    74. A(O   8,P   6,O   9)          102.06 -0.005239    0.48    102.54   
    75. A(O   7,P   6,O   9)          114.34  0.003839   -0.45    113.88   
    76. A(O   5,P   6,O   7)          116.99 -0.006886    0.74    117.73   
    77. A(O   7,P   6,O   8)          114.06 -0.001464    0.35    114.41   
    78. A(O   5,P   6,O   9)          104.67  0.006288   -0.84    103.83   
    79. A(P   6,O   8,H  35)          111.33  0.001259   -0.15    111.19   
    80. A(P   6,O   9,H  36)          110.61  0.001087   -0.13    110.48   
    81. A(C   3,C  10,C  12)          111.94  0.002526   -0.28    111.66   
    82. A(C   3,C  10,O  11)          109.95  0.002048   -0.55    109.40   
    83. A(O  11,C  10,H  37)          107.27 -0.004776    1.58    108.85   
    84. A(C  12,C  10,H  37)          108.19  0.002375   -0.44    107.75   
    85. A(O  11,C  10,C  12)          109.75 -0.001681   -0.19    109.56   
    86. A(C   3,C  10,H  37)          109.61 -0.000816   -0.03    109.58   
    87. A(C  10,O  11,H  38)          106.32 -0.006386    0.86    107.18   
    88. A(O  13,C  12,C  14)          112.31  0.000691   -0.35    111.95   
    89. A(C  10,C  12,C  14)          112.54  0.002424   -0.48    112.06   
    90. A(O  13,C  12,H  39)          106.69 -0.003618    1.25    107.94   
    91. A(C  10,C  12,O  13)          107.21  0.001563   -0.41    106.80   
    92. A(C  10,C  12,H  39)          107.78 -0.001942    0.24    108.02   
    93. A(C  14,C  12,H  39)          110.03  0.000475   -0.14    109.89   
    94. A(C  12,O  13,H  40)          108.54  0.001863   -0.25    108.29   
    95. A(O  15,C  14,C  16)          107.64  0.000727   -0.43    107.21   
    96. A(C  12,C  14,C  16)          113.12 -0.000566    0.22    113.34   
    97. A(C   1,C  14,C  16)          111.54  0.001554   -0.29    111.25   
    98. A(C  12,C  14,O  15)          111.12  0.001990   -0.59    110.53   
    99. A(C   1,C  14,O  15)          107.59 -0.000940    0.38    107.97   
   100. A(C   1,C  14,C  12)          105.73 -0.002777    0.74    106.47   
   101. A(C  14,O  15,H  41)          105.49 -0.000965    0.13    105.62   
   102. A(O  17,C  16,O  18)          112.89 -0.000937    0.38    113.27   
   103. A(C  14,C  16,O  18)          105.53  0.002093   -0.87    104.66   
   104. A(C  14,C  16,O  17)          109.01  0.002171   -0.46    108.55   
   105. A(O  18,C  16,C  30)          108.56  0.000050    0.02    108.57   
   106. A(O  17,C  16,C  30)          109.74 -0.005388    1.35    111.09   
   107. A(C  14,C  16,C  30)          111.06  0.002403   -0.52    110.54   
   108. A(C  16,O  17,H  42)          106.99 -0.003009    0.40    107.40   
   109. A(C  16,O  18,C  19)          116.81 -0.005152    0.64    117.45   
   110. A(C  20,C  19,C  26)          112.34  0.002011   -0.73    111.61   
   111. A(O  18,C  19,C  26)          113.66 -0.000848    0.27    113.93   
   112. A(C  26,C  19,H  43)          108.38 -0.000646    0.38    108.76   
   113. A(C  20,C  19,H  43)          107.94 -0.001235    0.29    108.23   
   114. A(O  18,C  19,H  43)          106.94 -0.001624    0.75    107.69   
   115. A(O  18,C  19,C  20)          107.31  0.002119   -0.89    106.42   
   116. A(O  21,C  20,H  45)          108.63 -0.004240    0.66    109.29   
   117. A(C  19,C  20,H  45)          109.56  0.001083   -0.19    109.37   
   118. A(O  21,C  20,H  44)          110.64 -0.002257    0.12    110.76   
   119. A(H  44,C  20,H  45)          106.57 -0.002692    0.89    107.46   
   120. A(C  19,C  20,H  44)          110.82  0.000512   -0.26    110.56   
   121. A(C  19,C  20,O  21)          110.52  0.007132   -1.13    109.39   
   122. A(C  20,O  21,P  22)          116.27  0.002286   -0.24    116.03   
   123. A(O  24,P  22,O  25)          102.16 -0.005078    0.64    102.80   
   124. A(O  23,P  22,O  25)          114.63 -0.002499    0.39    115.02   
   125. A(O  21,P  22,O  25)          105.41  0.007742   -1.08    104.34   
   126. A(O  23,P  22,O  24)          112.93 -0.003847    0.70    113.62   
   127. A(O  21,P  22,O  24)          103.33  0.004696   -0.61    102.72   
   128. A(O  21,P  22,O  23)          116.76 -0.000527   -0.10    116.66   
   129. A(P  22,O  24,H  46)          110.85  0.001997   -0.23    110.62   
   130. A(P  22,O  25,H  47)          110.82  0.003167   -0.37    110.45   
   131. A(O  27,C  26,C  28)          107.62  0.000433   -0.08    107.55   
   132. A(C  19,C  26,C  28)          111.54  0.006341   -0.85    110.69   
   133. A(C  28,C  26,H  48)          110.40 -0.001561   -0.13    110.27   
   134. A(O  27,C  26,H  48)          106.93  0.001295    0.04    106.97   
   135. A(C  19,C  26,O  27)          108.75 -0.007005    1.69    110.45   
   136. A(C  19,C  26,H  48)          111.39  0.000161   -0.57    110.82   
   137. A(C  26,O  27,H  49)          106.13 -0.007343    0.99    107.13   
   138. A(O  29,C  28,C  30)          110.48  0.000614    0.01    110.49   
   139. A(C  26,C  28,C  30)          112.14 -0.004422    0.63    112.77   
   140. A(C  26,C  28,O  29)          109.25  0.005978   -1.41    107.84   
   141. A(C  30,C  28,H  50)          109.47  0.000950   -0.19    109.28   
   142. A(O  29,C  28,H  50)          106.85 -0.004507    1.11    107.96   
   143. A(C  26,C  28,H  50)          108.49  0.001389   -0.13    108.36   
   144. A(C  28,O  29,H  51)          107.19 -0.003792    0.51    107.70   
   145. A(C  28,C  30,O  31)          108.95 -0.006160    1.38    110.33   
   146. A(C  16,C  30,O  31)          111.23 -0.001276    0.19    111.42   
   147. A(C  16,C  30,C  28)          113.41  0.004575   -0.38    113.03   
   148. A(O  31,C  30,H  52)          106.12  0.001392   -0.20    105.92   
   149. A(C  28,C  30,H  52)          107.24 -0.001046   -0.09    107.16   
   150. A(C  16,C  30,H  52)          109.56  0.002337   -0.91    108.65   
   151. A(C  30,O  31,H  53)          107.65 -0.002190    0.29    107.94   
   152. D(C   3,O   2,C   1,C  14)     -9.11 -0.002239    0.63     -8.48   
   153. D(C   3,O   2,C   1,O   0)    169.39 -0.000634    0.46    169.84   
   154. D(C  10,C   3,O   2,C   1)     54.40  0.001731   -0.66     53.73   
   155. D(H  32,C   3,O   2,C   1)    -67.79 -0.003540    0.35    -67.44   
   156. D(C   4,C   3,O   2,C   1)    177.13 -0.003486    0.19    177.31   
   157. D(H  34,C   4,C   3,H  32)    -75.45 -0.001222    1.06    -74.39   
   158. D(O   5,C   4,C   3,O   2)    159.31 -0.001002    0.93    160.23   
   159. D(O   5,C   4,C   3,C  10)    -78.84 -0.003789    1.45    -77.39   
   160. D(H  34,C   4,C   3,O   2)     41.15 -0.000628    0.98     42.13   
   161. D(O   5,C   4,C   3,H  32)     42.71 -0.001596    1.01     43.72   
   162. D(H  33,C   4,C   3,H  32)    167.92 -0.000257    0.66    168.58   
   163. D(H  33,C   4,C   3,O   2)    -75.48  0.000337    0.58    -74.90   
   164. D(H  34,C   4,C   3,C  10)    163.00 -0.003415    1.50    164.50   
   165. D(H  33,C   4,C   3,C  10)     46.38 -0.002450    1.10     47.48   
   166. D(P   6,O   5,C   4,C   3)    108.23 -0.007952    3.91    112.14   
   167. D(P   6,O   5,C   4,H  34)   -132.16 -0.003270    3.04   -129.12   
   168. D(P   6,O   5,C   4,H  33)    -16.94 -0.007128    3.93    -13.01   
   169. D(O   8,P   6,O   5,C   4)    178.17 -0.003058    1.97    180.14   
   170. D(O   9,P   6,O   5,C   4)     71.80 -0.000770    1.84     73.64   
   171. D(O   7,P   6,O   5,C   4)    -55.89 -0.006228    2.62    -53.27   
   172. D(H  35,O   8,P   6,O   7)    -54.05  0.002189   -0.22    -54.28   
   173. D(H  35,O   8,P   6,O   9)   -177.89  0.001855   -0.19   -178.08   
   174. D(H  35,O   8,P   6,O   5)     73.75 -0.004452    0.67     74.42   
   175. D(H  36,O   9,P   6,O   7)    -50.04  0.000015    0.24    -49.80   
   176. D(H  36,O   9,P   6,O   5)   -179.32  0.001269    0.26   -179.06   
   177. D(H  36,O   9,P   6,O   8)     73.62 -0.003239    0.75     74.37   
   178. D(C  12,C  10,C   3,O   2)    -38.06 -0.001505    0.43    -37.63   
   179. D(O  11,C  10,C   3,C   4)     79.75 -0.006799    2.10     81.85   
   180. D(C  12,C  10,C   3,C   4)   -157.99 -0.005773    1.27   -156.72   
   181. D(O  11,C  10,C   3,O   2)   -160.32 -0.002531    1.26   -159.06   
   182. D(O  11,C  10,C   3,H  32)    -39.30 -0.002598    1.24    -38.07   
   183. D(C  12,C  10,C   3,H  32)     82.96 -0.001572    0.41     83.37   
   184. D(H  37,C  10,C   3,C   4)    -37.93 -0.001710    0.52    -37.42   
   185. D(H  37,C  10,C   3,H  32)   -156.99  0.002492   -0.34   -157.33   
   186. D(H  37,C  10,C   3,O   2)     81.99  0.002558   -0.33     81.67   
   187. D(H  38,O  11,C  10,C   3)   -108.64 -0.000284    0.92   -107.72   
   188. D(H  38,O  11,C  10,C  12)    127.80 -0.003705    1.78    129.58   
   189. D(H  38,O  11,C  10,H  37)     10.48 -0.002933    1.51     11.99   
   190. D(H  39,C  12,C  10,O  11)    -15.58  0.001449   -0.64    -16.22   
   191. D(C  14,C  12,C  10,H  37)   -137.33 -0.003042    0.58   -136.75   
   192. D(H  39,C  12,C  10,H  37)    101.17 -0.003838    0.90    102.06   
   193. D(C  14,C  12,C  10,O  11)    105.93  0.002245   -0.96    104.97   
   194. D(C  14,C  12,C  10,C   3)    -16.45 -0.000901    0.07    -16.38   
   195. D(H  39,C  12,C  10,C   3)   -137.96 -0.001697    0.39   -137.57   
   196. D(O  13,C  12,C  10,H  37)    -13.36  0.000523   -0.46    -13.82   
   197. D(O  13,C  12,C  10,O  11)   -130.11  0.005810   -2.00   -132.11   
   198. D(O  13,C  12,C  10,C   3)    107.52  0.002665   -0.97    106.55   
   199. D(H  40,O  13,C  12,H  39)     81.30 -0.000204    0.42     81.72   
   200. D(H  40,O  13,C  12,C  14)    -39.34  0.001169   -0.01    -39.35   
   201. D(H  40,O  13,C  12,C  10)   -163.45 -0.003443    1.11   -162.34   
   202. D(O  15,C  14,C  12,H  39)     61.40  0.002583   -0.70     60.69   
   203. D(O  15,C  14,C  12,O  13)   -179.91 -0.001203    0.54   -179.37   
   204. D(O  15,C  14,C  12,C  10)    -58.82  0.003112   -0.60    -59.41   
   205. D(C   1,C  14,C  12,O  13)    -63.47 -0.002896    1.11    -62.35   
   206. D(C   1,C  14,C  12,C  10)     57.63  0.001418   -0.02     57.61   
   207. D(C  16,C  14,C   1,O   2)   -169.84  0.003485   -1.04   -170.88   
   208. D(C  16,C  14,C   1,O   0)     11.77  0.001755   -0.86     10.91   
   209. D(C   1,C  14,C  12,H  39)    177.84  0.000889   -0.13    177.71   
   210. D(O  15,C  14,C   1,O   2)     72.32  0.002297   -0.58     71.74   
   211. D(O  15,C  14,C   1,O   0)   -106.07  0.000567   -0.39   -106.46   
   212. D(C  16,C  14,C  12,C  10)    179.98  0.001110    0.25    180.23   
   213. D(C  12,C  14,C   1,O   2)    -46.49  0.001890   -0.46    -46.96   
   214. D(C  12,C  14,C   1,O   0)    135.11  0.000159   -0.28    134.84   
   215. D(C  16,C  14,C  12,H  39)    -59.81  0.000581    0.14    -59.67   
   216. D(C  16,C  14,C  12,O  13)     58.88 -0.003205    1.39     60.27   
   217. D(H  41,O  15,C  14,C  16)    -52.04 -0.000922    0.43    -51.61   
   218. D(H  41,O  15,C  14,C  12)   -176.41 -0.002004    0.84   -175.57   
   219. D(H  41,O  15,C  14,C   1)     68.29  0.000803    0.05     68.34   
   220. D(C  30,C  16,C  14,O  15)    -62.53 -0.002957    0.94    -61.59   
   221. D(C  30,C  16,C  14,C  12)     60.62 -0.000278    0.02     60.64   
   222. D(C  30,C  16,C  14,C   1)    179.66 -0.003143    0.92    180.58   
   223. D(O  18,C  16,C  14,C   1)    -62.89 -0.000640    0.17    -62.72   
   224. D(O  17,C  16,C  14,O  15)    176.44  0.000803   -0.11    176.33   
   225. D(O  17,C  16,C  14,C  12)    -60.41  0.003482   -1.03    -61.44   
   226. D(O  18,C  16,C  14,C  12)    178.07  0.002225   -0.73    177.34   
   227. D(O  17,C  16,C  14,C   1)     58.63  0.000617   -0.13     58.50   
   228. D(O  18,C  16,C  14,O  15)     54.92 -0.000454    0.19     55.11   
   229. D(H  42,O  17,C  16,C  30)     57.39 -0.002461    0.85     58.24   
   230. D(H  42,O  17,C  16,O  18)    -63.85  0.001942   -0.38    -64.23   
   231. D(H  42,O  17,C  16,C  14)    179.22 -0.001499    0.76    179.99   
   232. D(C  19,O  18,C  16,C  30)    -63.82  0.003206   -0.30    -64.12   
   233. D(C  19,O  18,C  16,O  17)     58.09 -0.004216    1.67     59.75   
   234. D(C  19,O  18,C  16,C  14)    177.05 -0.000758    0.76    177.82   
   235. D(H  43,C  19,O  18,C  16)    -90.72  0.000266   -0.17    -90.90   
   236. D(C  26,C  19,O  18,C  16)     28.83 -0.002143    0.97     29.80   
   237. D(C  20,C  19,O  18,C  16)    153.67  0.001459   -0.45    153.22   
   238. D(H  45,C  20,C  19,C  26)   -178.63  0.000498   -0.39   -179.02   
   239. D(H  45,C  20,C  19,O  18)     55.74 -0.001328    0.41     56.15   
   240. D(H  44,C  20,C  19,H  43)   -176.50  0.002434   -0.99   -177.49   
   241. D(H  44,C  20,C  19,C  26)     64.06  0.002827   -1.21     62.85   
   242. D(H  44,C  20,C  19,O  18)    -61.56  0.001001   -0.41    -61.98   
   243. D(O  21,C  20,C  19,H  43)     60.47 -0.000013   -0.18     60.30   
   244. D(O  21,C  20,C  19,C  26)    -58.96  0.000381   -0.40    -59.36   
   245. D(H  45,C  20,C  19,H  43)    -59.19  0.000105   -0.16    -59.36   
   246. D(O  21,C  20,C  19,O  18)    175.41 -0.001445    0.40    175.81   
   247. D(P  22,O  21,C  20,H  45)    -77.57  0.003181   -0.58    -78.16   
   248. D(P  22,O  21,C  20,H  44)     39.08 -0.003857    0.95     40.03   
   249. D(P  22,O  21,C  20,C  19)    162.20  0.000181   -0.07    162.13   
   250. D(O  25,P  22,O  21,C  20)     65.03  0.000515    0.37     65.40   
   251. D(O  24,P  22,O  21,C  20)    171.88 -0.000762    0.49    172.37   
   252. D(O  23,P  22,O  21,C  20)    -63.52 -0.002406    0.85    -62.67   
   253. D(H  46,O  24,P  22,O  25)   -164.26  0.005146   -0.57   -164.83   
   254. D(H  46,O  24,P  22,O  23)    -40.62 -0.003271    0.70    -39.92   
   255. D(H  46,O  24,P  22,O  21)     86.44 -0.002970    0.57     87.01   
   256. D(H  47,O  25,P  22,O  24)     76.65 -0.005804    1.22     77.87   
   257. D(H  47,O  25,P  22,O  23)    -45.84  0.003748   -0.29    -46.13   
   258. D(H  47,O  25,P  22,O  21)   -175.65 -0.000101    0.45   -175.20   
   259. D(H  48,C  26,C  19,H  43)    -86.35  0.001525   -0.94    -87.30   
   260. D(H  48,C  26,C  19,C  20)     32.83  0.000795   -0.78     32.05   
   261. D(H  48,C  26,C  19,O  18)    154.92  0.004527   -2.32    152.60   
   262. D(C  28,C  26,C  19,H  43)    149.79 -0.001230    0.28    150.07   
   263. D(C  28,C  26,C  19,C  20)    -91.03 -0.001960    0.45    -90.59   
   264. D(C  28,C  26,C  19,O  18)     31.06  0.001773   -1.09     29.96   
   265. D(O  27,C  26,C  19,H  43)     31.24 -0.001134   -0.18     31.06   
   266. D(O  27,C  26,C  19,C  20)    150.42 -0.001864   -0.01    150.41   
   267. D(O  27,C  26,C  19,O  18)    -87.49  0.001869   -1.56    -89.04   
   268. D(H  49,O  27,C  26,H  48)     41.39 -0.001342    0.57     41.96   
   269. D(H  49,O  27,C  26,C  28)    160.02 -0.002261    0.39    160.40   
   270. D(H  49,O  27,C  26,C  19)    -79.00  0.001592    0.29    -78.71   
   271. D(H  50,C  28,C  26,C  19)   -174.26 -0.000411    0.33   -173.94   
   272. D(C  30,C  28,C  26,H  48)   -177.65 -0.004728    1.85   -175.79   
   273. D(C  30,C  28,C  26,O  27)     65.99 -0.005683    1.93     67.91   
   274. D(C  30,C  28,C  26,C  19)    -53.23 -0.001091    0.40    -52.83   
   275. D(O  29,C  28,C  26,H  48)    -54.81 -0.002702    1.30    -53.52   
   276. D(O  29,C  28,C  26,O  27)   -171.18 -0.003656    1.37   -169.81   
   277. D(H  50,C  28,C  26,O  27)    -55.05 -0.005003    1.85    -53.20   
   278. D(O  29,C  28,C  26,C  19)     69.60  0.000936   -0.15     69.45   
   279. D(H  50,C  28,C  26,H  48)     61.32 -0.004049    1.78     63.10   
   280. D(H  51,O  29,C  28,H  50)     48.70 -0.001669    0.55     49.25   
   281. D(H  51,O  29,C  28,C  30)    -70.30 -0.000470    0.11    -70.19   
   282. D(H  51,O  29,C  28,C  26)    165.88  0.000607    0.27    166.15   
   283. D(H  52,C  30,C  28,H  50)    -99.74  0.002159   -0.45   -100.19   
   284. D(H  52,C  30,C  28,O  29)     17.66 -0.002404    0.79     18.46   
   285. D(H  52,C  30,C  28,C  26)    139.80  0.002635   -0.57    139.23   
   286. D(O  31,C  30,C  28,H  50)     14.72  0.000181   -0.04     14.68   
   287. D(O  31,C  30,C  28,O  29)    132.12 -0.004382    1.20    133.32   
   288. D(O  31,C  30,C  28,C  26)   -105.75  0.000658   -0.16   -105.91   
   289. D(C  16,C  30,C  28,H  50)    139.17 -0.002903    0.99    140.16   
   290. D(C  16,C  30,C  28,O  29)   -103.43 -0.007466    2.23   -101.20   
   291. D(C  16,C  30,C  28,C  26)     18.71 -0.002426    0.87     19.57   
   292. D(H  52,C  30,C  16,O  18)    -83.18 -0.001973    0.14    -83.04   
   293. D(H  52,C  30,C  16,O  17)    153.01  0.002631   -1.21    151.81   
   294. D(H  52,C  30,C  16,C  14)     32.42  0.001921   -1.19     31.23   
   295. D(O  31,C  30,C  16,O  18)    159.81 -0.004362    0.83    160.64   
   296. D(O  31,C  30,C  16,O  17)     36.00  0.000241   -0.51     35.49   
   297. D(O  31,C  30,C  16,C  14)    -84.59 -0.000468   -0.50    -85.09   
   298. D(C  28,C  30,C  16,O  18)     36.60  0.001343   -0.86     35.74   
   299. D(C  28,C  30,C  16,O  17)    -87.21  0.005947   -2.20    -89.41   
   300. D(C  28,C  30,C  16,C  14)    152.19  0.005237   -2.19    150.01   
   301. D(H  53,O  31,C  30,H  52)   -175.88 -0.002951    1.02   -174.86   
   302. D(H  53,O  31,C  30,C  28)     68.94  0.000508    0.56     69.50   
   303. D(H  53,O  31,C  30,C  16)    -56.80  0.000007   -0.09    -56.89   
    ----------------------------------------------------------------------------

         *************************************************************
         *                GEOMETRY OPTIMIZATION CYCLE   2            *
         *************************************************************
---------------------------------
CARTESIAN COORDINATES (ANGSTROEM)
---------------------------------
  O     0.341625    0.806704    2.521738
  C     1.091332    0.534716    1.620477
  O     2.389484    0.302896    1.887201
  C     3.230731   -0.230843    0.860319
  C     4.637121   -0.303868    1.472085
  O     5.472559   -1.202078    0.767821
  P     6.707160   -0.617984   -0.055474
  O     6.434045    0.457631   -1.037500
  O     7.358896   -1.926802   -0.678918
[...]
 69:    620.31   0.052039  262.98  0.026180  (-0.000091  0.068400 -0.146633)
 70:    668.25   0.004982   25.17  0.002326  (-0.014890 -0.002362 -0.045815)
 71:    696.23   0.003866   19.54  0.001733  ( 0.007520  0.004699  0.040670)
 72:    725.53   0.010487   53.00  0.004511  ( 0.011742  0.027270  0.060242)
 73:    741.91   0.031935  161.39  0.013433  (-0.072938  0.012193  0.089242)
 74:    776.04   0.002356   11.91  0.000947  (-0.029243  0.007285  0.006260)
 75:    796.23   0.001590    8.03  0.000623  (-0.010659  0.015030  0.016836)
 76:    817.14   0.007293   36.85  0.002785  ( 0.028439  0.022978 -0.038056)
 77:    831.98   0.015876   80.23  0.005955  ( 0.022367 -0.018359 -0.071538)
 78:    836.31   0.009220   46.59  0.003440  (-0.031035 -0.033372  0.036926)
 79:    840.21   0.047840  241.77  0.017768  (-0.081262 -0.097028  0.041838)
 80:    864.46   0.052709  266.37  0.019027  (-0.068242  0.099341 -0.067096)
 81:    882.35   0.047618  240.64  0.016841  (-0.120738  0.044773 -0.016089)
 82:    884.27   0.080554  407.09  0.028428  (-0.160164  0.015426 -0.050373)
 83:    886.30   0.007672   38.77  0.002701  ( 0.033451  0.035378 -0.018183)
 84:    904.96   0.018643   94.21  0.006429  ( 0.065211  0.018420  0.042860)
 85:    906.47   0.019275   97.41  0.006636  (-0.080061 -0.005892 -0.013831)
 86:    924.05   0.048718  246.20  0.016453  ( 0.040319 -0.014988 -0.120841)
 87:    950.99   0.002502   12.64  0.000821  (-0.028236  0.002039 -0.004412)
 88:    971.85   0.096593  488.14  0.031016  (-0.041463  0.147563  0.086731)
 89:    993.97   0.002896   14.64  0.000909  ( 0.029816 -0.001997 -0.004033)
 90:   1011.52   0.009507   48.05  0.002933  ( 0.004868 -0.023839  0.048386)
 91:   1024.46   0.000599    3.03  0.000183  (-0.012589 -0.002691  0.004099)
 92:   1042.81   0.004628   23.39  0.001385  ( 0.014579  0.021542 -0.026613)
 93:   1054.31   0.004211   21.28  0.001246  (-0.022743  0.026881  0.002538)
 94:   1063.65   0.003249   16.42  0.000953  (-0.012242 -0.027187  0.008020)
 95:   1076.73   0.004249   21.47  0.001232  ( 0.022273 -0.024635 -0.011338)
 96:   1083.70   0.036434  184.12  0.010492  ( 0.064668 -0.045306 -0.065246)
 97:   1084.87   0.024431  123.46  0.007028  ( 0.059349  0.054008  0.024261)
 98:   1091.77   0.018862   95.32  0.005391  ( 0.041382 -0.052062  0.031120)
 99:   1095.59   0.005003   25.28  0.001425  (-0.008088 -0.006302  0.036329)
100:   1098.35   0.034145  172.55  0.009701  (-0.078332 -0.052399  0.028630)
101:   1103.96   0.010302   52.06  0.002912  (-0.027996 -0.041179 -0.020801)
102:   1111.17   0.011264   56.92  0.003163  ( 0.020953 -0.051037 -0.010934)
103:   1119.53   0.009100   45.99  0.002537  (-0.033946 -0.037188  0.001096)
104:   1122.54   0.014531   73.43  0.004040  ( 0.051046  0.014486 -0.034987)
105:   1126.49   0.009438   47.70  0.002615  ( 0.003210  0.044844  0.024358)
106:   1135.15   0.031585  159.62  0.008683  (-0.014408 -0.087644 -0.028177)
107:   1135.61   0.006332   32.00  0.001740  (-0.037620 -0.015829  0.008606)
108:   1156.04   0.021289  107.59  0.005747  ( 0.000597 -0.075784 -0.001806)
109:   1176.32   0.035965  181.75  0.009541  (-0.096904 -0.005656 -0.010902)
110:   1178.62   0.037337  188.69  0.009886  ( 0.063657 -0.068728  0.033318)
111:   1189.02   0.002222   11.23  0.000583  ( 0.008539 -0.018737 -0.012622)
112:   1197.40   0.001178    5.95  0.000307  (-0.014339  0.006824  0.007409)
113:   1201.84   0.009348   47.24  0.002427  ( 0.003164 -0.045112 -0.019548)
114:   1205.06   0.011720   59.23  0.003035  (-0.002561 -0.054782  0.005235)
115:   1228.89   0.032081  162.12  0.008146  (-0.020855 -0.082758  0.029370)
116:   1230.73   0.053701  271.38  0.013616  ( 0.023504  0.114000 -0.008246)
117:   1239.40   0.012573   63.54  0.003166  (-0.022082 -0.033001  0.039863)
118:   1251.68   0.005092   25.73  0.001270  (-0.012264  0.025878  0.021201)
119:   1258.64   0.007122   35.99  0.001766  ( 0.015776  0.017667 -0.034710)
120:   1262.34   0.012793   64.65  0.003163  (-0.016926 -0.031424 -0.043459)
121:   1271.61   0.068692  347.14  0.016858  ( 0.016584 -0.084725 -0.096976)
122:   1277.03   0.018407   93.02  0.004498  (-0.059555  0.016162 -0.026270)
123:   1284.38   0.000180    0.91  0.000044  (-0.004455  0.002842  0.003969)
124:   1288.93   0.000787    3.98  0.000191  (-0.005311 -0.002057 -0.012573)
125:   1292.41   0.010896   55.06  0.002631  (-0.034962  0.027561  0.025476)
126:   1298.87   0.012254   61.93  0.002944  ( 0.032412 -0.022602 -0.037187)
127:   1302.69   0.004968   25.11  0.001190  (-0.031478 -0.003525  0.013666)
128:   1305.88   0.002231   11.27  0.000533  ( 0.020000 -0.011359  0.002025)
129:   1316.63   0.003722   18.81  0.000882  ( 0.018643  0.022247  0.006305)
130:   1319.50   0.019410   98.09  0.004590  (-0.023006 -0.062377  0.013048)
131:   1330.65   0.031865  161.03  0.007473  (-0.026053 -0.069124 -0.044899)
132:   1333.75   0.002706   13.68  0.000633  ( 0.014513 -0.012571  0.016266)
133:   1338.06   0.011160   56.40  0.002603  (-0.015487 -0.036876 -0.031670)
134:   1343.81   0.002772   14.01  0.000644  (-0.004119 -0.019709  0.015440)
135:   1349.41   0.026359  133.21  0.006096  ( 0.040277  0.063349 -0.021458)
136:   1363.49   0.000981    4.96  0.000225  ( 0.010408  0.004242  0.009912)
137:   1440.62   0.000939    4.74  0.000203  ( 0.006157 -0.007149  0.010693)
138:   1463.24   0.000189    0.96  0.000040  ( 0.006233 -0.001136  0.000455)
139:   1796.81   0.093603  473.03  0.016257  ( 0.095038 -0.026196 -0.080859)
140:   2848.27   0.007909   39.97  0.000867  ( 0.019926 -0.002173 -0.021558)
141:   2865.04   0.007272   36.75  0.000792  (-0.015918  0.014150 -0.018397)
142:   2889.72   0.002670   13.49  0.000288  ( 0.001109 -0.001630 -0.016865)
143:   2915.13   0.000594    3.00  0.000064  (-0.004042 -0.006793 -0.001046)
144:   2923.68   0.000504    2.55  0.000054  (-0.001818  0.007063  0.000758)
145:   2934.02   0.000427    2.16  0.000045  ( 0.000940  0.005188  0.004201)
146:   2935.17   0.000396    2.00  0.000042  (-0.005090  0.003874  0.001105)
147:   2942.88   0.002440   12.33  0.000259  (-0.015870 -0.002527 -0.000731)
148:   2954.20   0.003065   15.49  0.000324  (-0.012265 -0.000790 -0.013142)
149:   2959.56   0.003214   16.24  0.000339  ( 0.016935 -0.001568 -0.007048)
150:   2975.06   0.002518   12.73  0.000264  ( 0.001734 -0.000242  0.016159)
151:   3213.98   0.089310  451.33  0.008672  (-0.089299  0.013545 -0.022668)
152:   3299.18   0.052146  263.52  0.004932  ( 0.070015 -0.004543  0.003100)
153:   3366.05   0.073926  373.59  0.006854  (-0.057234  0.052620 -0.028445)
154:   3444.58   0.022652  114.47  0.002052  (-0.044796 -0.002537  0.006247)
155:   3466.06   0.011972   60.50  0.001078  (-0.031909 -0.006619  0.003987)
156:   3473.72   0.007087   35.82  0.000637  (-0.001112 -0.010239 -0.023035)
157:   3537.86   0.005208   26.32  0.000459  (-0.010613  0.011166  0.014902)
158:   3541.57   0.010330   52.20  0.000910  (-0.023368  0.013618  0.013368)
159:   3613.82   0.011756   59.41  0.001015  ( 0.030462  0.009220  0.001497)
160:   3617.87   0.010829   54.73  0.000934  (-0.003618 -0.028588  0.010183)
161:   3625.72   0.008478   42.85  0.000730  ( 0.016710  0.010924  0.018198)

* The epsilon (eps) is given for a Dirac delta lineshape.
** The dipole moment derivative (T) already includes vibrational overlap.

The first frequency considered to be a vibration is 6
The total number of vibrations considered is 156


--------------------------
THERMOCHEMISTRY AT 298.15K
--------------------------

Temperature         ... 298.15 K
Pressure            ... 1.00 atm
Total Mass          ... 516.24 AMU

Throughout the following assumptions are being made:
  (1) The electronic state is orbitally nondegenerate
  (2) There are no thermally accessible electronically excited states
  (3) Hindered rotations indicated by low frequency modes are not
      treated as such but are treated as vibrations and this may
      cause some error
  (4) All equations used are the standard statistical mechanics
      equations for an ideal gas
  (5) All vibrations are strictly harmonic

freq.       6.47  E(vib)   ...       0.58 
freq.      16.39  E(vib)   ...       0.57 
freq.      18.71  E(vib)   ...       0.57 
freq.      28.19  E(vib)   ...       0.55 
freq.      38.46  E(vib)   ...       0.54 
freq.      43.96  E(vib)   ...       0.53 
freq.      56.34  E(vib)   ...       0.52 
freq.      63.92  E(vib)   ...       0.51 
freq.      73.88  E(vib)   ...       0.49 
freq.      95.41  E(vib)   ...       0.47 
freq.     105.28  E(vib)   ...       0.45 
freq.     115.29  E(vib)   ...       0.44 
freq.     121.28  E(vib)   ...       0.44 
freq.     130.31  E(vib)   ...       0.43 
freq.     142.18  E(vib)   ...       0.41 
freq.     152.16  E(vib)   ...       0.40 
freq.     159.35  E(vib)   ...       0.39 
freq.     169.72  E(vib)   ...       0.38 
freq.     180.05  E(vib)   ...       0.37 
freq.     189.48  E(vib)   ...       0.36 
freq.     193.24  E(vib)   ...       0.36 
freq.     205.69  E(vib)   ...       0.35 
freq.     214.04  E(vib)   ...       0.34 
freq.     218.56  E(vib)   ...       0.33 
freq.     226.02  E(vib)   ...       0.33 
freq.     230.37  E(vib)   ...       0.32 
freq.     237.63  E(vib)   ...       0.32 
freq.     245.79  E(vib)   ...       0.31 
freq.     273.94  E(vib)   ...       0.28 
freq.     285.42  E(vib)   ...       0.28 
freq.     306.67  E(vib)   ...       0.26 
freq.     311.96  E(vib)   ...       0.25 
freq.     316.05  E(vib)   ...       0.25 
freq.     325.04  E(vib)   ...       0.24 
freq.     330.27  E(vib)   ...       0.24 
freq.     337.14  E(vib)   ...       0.24 
freq.     345.15  E(vib)   ...       0.23 
freq.     345.30  E(vib)   ...       0.23 
freq.     354.38  E(vib)   ...       0.22 
freq.     366.63  E(vib)   ...       0.22 
freq.     374.59  E(vib)   ...       0.21 
freq.     395.95  E(vib)   ...       0.20 
freq.     397.60  E(vib)   ...       0.20 
freq.     401.41  E(vib)   ...       0.19 
freq.     409.49  E(vib)   ...       0.19 
freq.     421.18  E(vib)   ...       0.18 
freq.     425.45  E(vib)   ...       0.18 
freq.     442.51  E(vib)   ...       0.17 
freq.     444.29  E(vib)   ...       0.17 
freq.     447.98  E(vib)   ...       0.17 
freq.     453.76  E(vib)   ...       0.16 
freq.     464.56  E(vib)   ...       0.16 
freq.     481.47  E(vib)   ...       0.15 
freq.     487.42  E(vib)   ...       0.15 
freq.     501.62  E(vib)   ...       0.14 
freq.     508.94  E(vib)   ...       0.14 
freq.     525.02  E(vib)   ...       0.13 
freq.     529.88  E(vib)   ...       0.13 
freq.     537.32  E(vib)   ...       0.12 
freq.     552.08  E(vib)   ...       0.12 
freq.     570.15  E(vib)   ...       0.11 
freq.     571.87  E(vib)   ...       0.11 
freq.     607.90  E(vib)   ...       0.10 
freq.     620.31  E(vib)   ...       0.09 
freq.     668.25  E(vib)   ...       0.08 
freq.     696.23  E(vib)   ...       0.07 
freq.     725.53  E(vib)   ...       0.06 
freq.     741.91  E(vib)   ...       0.06 
freq.     776.04  E(vib)   ...       0.05 
freq.     796.23  E(vib)   ...       0.05 
freq.     817.14  E(vib)   ...       0.05 
freq.     831.98  E(vib)   ...       0.04 
freq.     836.31  E(vib)   ...       0.04 
freq.     840.21  E(vib)   ...       0.04 
freq.     864.46  E(vib)   ...       0.04 
freq.     882.35  E(vib)   ...       0.04 
freq.     884.27  E(vib)   ...       0.04 
freq.     886.30  E(vib)   ...       0.04 
freq.     904.96  E(vib)   ...       0.03 
freq.     906.47  E(vib)   ...       0.03 
freq.     924.05  E(vib)   ...       0.03 
freq.     950.99  E(vib)   ...       0.03 
freq.     971.85  E(vib)   ...       0.03 
freq.     993.97  E(vib)   ...       0.02 
freq.    1011.52  E(vib)   ...       0.02 
freq.    1024.46  E(vib)   ...       0.02 
freq.    1042.81  E(vib)   ...       0.02 
freq.    1054.31  E(vib)   ...       0.02 
freq.    1063.65  E(vib)   ...       0.02 
freq.    1076.73  E(vib)   ...       0.02 
freq.    1083.70  E(vib)   ...       0.02 
freq.    1084.87  E(vib)   ...       0.02 
freq.    1091.77  E(vib)   ...       0.02 
freq.    1095.59  E(vib)   ...       0.02 
freq.    1098.35  E(vib)   ...       0.02 
freq.    1103.96  E(vib)   ...       0.02 
freq.    1111.17  E(vib)   ...       0.01 
freq.    1119.53  E(vib)   ...       0.01 
freq.    1122.54  E(vib)   ...       0.01 
freq.    1126.49  E(vib)   ...       0.01 
freq.    1135.15  E(vib)   ...       0.01 
freq.    1135.61  E(vib)   ...       0.01 
freq.    1156.04  E(vib)   ...       0.01 
freq.    1176.32  E(vib)   ...       0.01 
freq.    1178.62  E(vib)   ...       0.01 
freq.    1189.02  E(vib)   ...       0.01 
freq.    1197.40  E(vib)   ...       0.01 
freq.    1201.84  E(vib)   ...       0.01 
freq.    1205.06  E(vib)   ...       0.01 
freq.    1228.89  E(vib)   ...       0.01 
freq.    1230.73  E(vib)   ...       0.01 
freq.    1239.40  E(vib)   ...       0.01 
freq.    1251.68  E(vib)   ...       0.01 
freq.    1258.64  E(vib)   ...       0.01 
freq.    1262.34  E(vib)   ...       0.01 
freq.    1271.61  E(vib)   ...       0.01 
freq.    1277.03  E(vib)   ...       0.01 
freq.    1284.38  E(vib)   ...       0.01 
freq.    1288.93  E(vib)   ...       0.01 
freq.    1292.41  E(vib)   ...       0.01 
freq.    1298.87  E(vib)   ...       0.01 
freq.    1302.69  E(vib)   ...       0.01 
freq.    1305.88  E(vib)   ...       0.01 
freq.    1316.63  E(vib)   ...       0.01 
freq.    1319.50  E(vib)   ...       0.01 
freq.    1330.65  E(vib)   ...       0.01 
freq.    1333.75  E(vib)   ...       0.01 
freq.    1338.06  E(vib)   ...       0.01 
freq.    1343.81  E(vib)   ...       0.01 
freq.    1349.41  E(vib)   ...       0.01 
freq.    1363.49  E(vib)   ...       0.01 
freq.    1440.62  E(vib)   ...       0.00 
freq.    1463.24  E(vib)   ...       0.00 
freq.    1796.81  E(vib)   ...       0.00 
freq.    2848.27  E(vib)   ...       0.00 
freq.    2865.04  E(vib)   ...       0.00 
freq.    2889.72  E(vib)   ...       0.00 
freq.    2915.13  E(vib)   ...       0.00 
freq.    2923.68  E(vib)   ...       0.00 
freq.    2934.02  E(vib)   ...       0.00 
freq.    2935.17  E(vib)   ...       0.00 
freq.    2942.88  E(vib)   ...       0.00 
freq.    2954.20  E(vib)   ...       0.00 
freq.    2959.56  E(vib)   ...       0.00 
freq.    2975.06  E(vib)   ...       0.00 
freq.    3213.98  E(vib)   ...       0.00 
freq.    3299.18  E(vib)   ...       0.00 
freq.    3366.05  E(vib)   ...       0.00 
freq.    3444.58  E(vib)   ...       0.00 
freq.    3466.06  E(vib)   ...       0.00 
freq.    3473.72  E(vib)   ...       0.00 
freq.    3537.86  E(vib)   ...       0.00 
freq.    3541.57  E(vib)   ...       0.00 
freq.    3613.82  E(vib)   ...       0.00 
freq.    3617.87  E(vib)   ...       0.00 
freq.    3625.72  E(vib)   ...       0.00 

------------
INNER ENERGY
------------

The inner energy is: U= E(el) + E(ZPE) + E(vib) + E(rot) + E(trans)
    E(el)   - is the total energy from the electronic structure calculation
              = E(kin-el) + E(nuc-el) + E(el-el) + E(nuc-nuc)
    E(ZPE)  - the the zero temperature vibrational energy from the frequency calculation
    E(vib)  - the the finite temperature correction to E(ZPE) due to population
              of excited vibrational states
    E(rot)  - is the rotational thermal energy
    E(trans)- is the translational thermal energy

Summary of contributions to the inner energy U:
Electronic energy                ...   -115.48479123 Eh
Zero point energy                ...      0.38151898 Eh     239.41 kcal/mol
Thermal vibrational correction   ...      0.03200077 Eh      20.08 kcal/mol
Thermal rotational correction    ...      0.00141627 Eh       0.89 kcal/mol
Thermal translational correction ...      0.00141627 Eh       0.89 kcal/mol
-----------------------------------------------------------------------
Total thermal energy                   -115.06843894 Eh


Summary of corrections to the electronic energy:
(perhaps to be used in another calculation)
Total thermal correction                  0.03483331 Eh      21.86 kcal/mol
Non-thermal (ZPE) correction              0.38151898 Eh     239.41 kcal/mol
-----------------------------------------------------------------------
Total correction                          0.41635229 Eh     261.26 kcal/mol


--------
ENTHALPY
--------

The enthalpy is H = U + kB*T
                kB is Boltzmann's constant
Total free energy                 ...   -115.06843894 Eh 
Thermal Enthalpy correction       ...      0.00094421 Eh       0.59 kcal/mol
-----------------------------------------------------------------------
Total Enthalpy                    ...   -115.06749473 Eh


Note: Only C1 symmetry has been detected, increase convergence thresholds 
      if your molecule has a higher symmetry. Symmetry factor of 1.0 is   
      used for the rotational entropy correction. 
 

Note: Rotational entropy computed according to Herzberg 
Infrared and Raman Spectra, Chapter V,1, Van Nostrand Reinhold, 1945 
Point Group:  C1, Symmetry Number:   1  
Rotational constants in cm-1:     0.008088     0.001783     0.001661 

Vibrational entropy computed according to the QRRHO of S. Grimme
Chem.Eur.J. 2012 18 9955


-------
ENTROPY
-------

The entropy contributions are T*S = T*(S(el)+S(vib)+S(rot)+S(trans))
     S(el)   - electronic entropy
     S(vib)  - vibrational entropy
     S(rot)  - rotational entropy
     S(trans)- translational entropy
The entropies will be listed as multiplied by the temperature to get
units of energy

Electronic entropy                ...      0.00000000 Eh      0.00 kcal/mol
Vibrational entropy               ...      0.05763500 Eh     36.17 kcal/mol
Rotational entropy                ...      0.01779447 Eh     11.17 kcal/mol
Translational entropy             ...      0.02119591 Eh     13.30 kcal/mol
-----------------------------------------------------------------------
Final entropy term                ...      0.09662538 Eh     60.63 kcal/mol

In case the symmetry of your molecule has not been determined correctly
or in case you have a reason to use a different symmetry number we print 
out the resulting rotational entropy values for sn=1,12 :
 --------------------------------------------------------
|  sn= 1 | S(rot)=       0.01779447 Eh     11.17 kcal/mol|
|  sn= 2 | S(rot)=       0.01714002 Eh     10.76 kcal/mol|
|  sn= 3 | S(rot)=       0.01675718 Eh     10.52 kcal/mol|
|  sn= 4 | S(rot)=       0.01648556 Eh     10.34 kcal/mol|
|  sn= 5 | S(rot)=       0.01627487 Eh     10.21 kcal/mol|
|  sn= 6 | S(rot)=       0.01610273 Eh     10.10 kcal/mol|
|  sn= 7 | S(rot)=       0.01595718 Eh     10.01 kcal/mol|
|  sn= 8 | S(rot)=       0.01583110 Eh      9.93 kcal/mol|
|  sn= 9 | S(rot)=       0.01571990 Eh      9.86 kcal/mol|
|  sn=10 | S(rot)=       0.01562042 Eh      9.80 kcal/mol|
|  sn=11 | S(rot)=       0.01553043 Eh      9.75 kcal/mol|
|  sn=12 | S(rot)=       0.01544827 Eh      9.69 kcal/mol|
 --------------------------------------------------------


-------------------
GIBBS FREE ENERGY
-------------------

The Gibbs free energy is G = H - T*S

Total enthalpy                    ...   -115.06749473 Eh 
Total entropy correction          ...     -0.09662538 Eh    -60.63 kcal/mol
-----------------------------------------------------------------------
Final Gibbs free energy         ...   -115.16412011 Eh

For completeness - the Gibbs free energy minus the electronic energy
G-E(el)                           ...      0.32067112 Eh    201.22 kcal/mol



Timings for individual modules:

Sum of individual times         ...      833.317 sec (=  13.889 min)
Geometry relaxation             ...        6.477 sec (=   0.108 min)   0.8 %
Numerical frequency calculation ...      822.303 sec (=  13.705 min)  98.7 %
XTB module                      ...        4.537 sec (=   0.076 min)   0.5 %
                             ****ORCA TERMINATED NORMALLY****
TOTAL RUN TIME: 0 days 0 hours 13 minutes 57 seconds 919 msec
