
                                 *****************
                                 * O   R   C   A *
                                 *****************

                                            #,                                       
                                            ###                                      
                                            ####                                     
                                            #####                                    
                                            ######                                   
                                           ########,                                 
                                     ,,################,,,,,                         
                               ,,#################################,,                 
                          ,,##########################################,,             
                       ,#########################################, ''#####,          
                    ,#############################################,,   '####,        
                  ,##################################################,,,,####,       
                ,###########''''           ''''###############################       
              ,#####''   ,,,,##########,,,,          '''####'''          '####       
            ,##' ,,,,###########################,,,                        '##       
           ' ,,###''''                  '''############,,,                           
         ,,##''                                '''############,,,,        ,,,,,,###''
      ,#''                                            '''#######################'''  
     '                                                          ''''####''''         
             ,#######,   #######,   ,#######,      ##                                
            ,#'     '#,  ##    ##  ,#'     '#,    #''#        ######   ,####,        
            ##       ##  ##   ,#'  ##            #'  '#       #        #'  '#        
            ##       ##  #######   ##           ,######,      #####,   #    #        
            '#,     ,#'  ##    ##  '#,     ,#' ,#      #,         ##   #,  ,#        
             '#######'   ##     ##  '#######'  #'      '#     #####' # '####'        



                  #######################################################
                  #                        -***-                        #
                  #          Department of theory and spectroscopy      #
                  #    Directorship and core code : Frank Neese         #
                  #        Max Planck Institute fuer Kohlenforschung    #
                  #                Kaiser Wilhelm Platz 1               #
                  #                 D-45470 Muelheim/Ruhr               #
                  #                      Germany                        #
                  #                                                     #
                  #                  All rights reserved                #
                  #                        -***-                        #
                  #######################################################


                         Program Version 5.0.3 -  RELEASE  -


 With contributions from (in alphabetic order):
   Daniel Aravena         : Magnetic Suceptibility
   Michael Atanasov       : Ab Initio Ligand Field Theory (pilot matlab implementation)
   Alexander A. Auer      : GIAO ZORA, VPT2 properties, NMR spectrum
   Ute Becker             : Parallelization
   Giovanni Bistoni       : ED, misc. LED, open-shell LED, HFLD
   Martin Brehm           : Molecular dynamics
   Dmytro Bykov           : SCF Hessian
   Vijay G. Chilkuri      : MRCI spin determinant printing, contributions to CSF-ICE
   Dipayan Datta          : RHF DLPNO-CCSD density
   Achintya Kumar Dutta   : EOM-CC, STEOM-CC
   Dmitry Ganyushin       : Spin-Orbit,Spin-Spin,Magnetic field MRCI
   Miquel Garcia          : C-PCM and meta-GGA Hessian, CC/C-PCM, Gaussian charge scheme
   Yang Guo               : DLPNO-NEVPT2, F12-NEVPT2, CIM, IAO-localization
   Andreas Hansen         : Spin unrestricted coupled pair/coupled cluster methods
   Benjamin Helmich-Paris : MC-RPA, TRAH-SCF, COSX integrals
   Lee Huntington         : MR-EOM, pCC
   Robert Izsak           : Overlap fitted RIJCOSX, COSX-SCS-MP3, EOM
   Marcus Kettner         : VPT2
   Christian Kollmar      : KDIIS, OOCD, Brueckner-CCSD(T), CCSD density, CASPT2, CASPT2-K
   Simone Kossmann        : Meta GGA functionals, TD-DFT gradient, OOMP2, MP2 Hessian
   Martin Krupicka        : Initial AUTO-CI
   Lucas Lang             : DCDCAS
   Marvin Lechner         : AUTO-CI (C++ implementation), FIC-MRCC
   Dagmar Lenk            : GEPOL surface, SMD
   Dimitrios Liakos       : Extrapolation schemes; Compound Job, initial MDCI parallelization
   Dimitrios Manganas     : Further ROCIS development; embedding schemes
   Dimitrios Pantazis     : SARC Basis sets
   Anastasios Papadopoulos: AUTO-CI, single reference methods and gradients
   Taras Petrenko         : DFT Hessian,TD-DFT gradient, ASA, ECA, R-Raman, ABS, FL, XAS/XES, NRVS
   Peter Pinski           : DLPNO-MP2, DLPNO-MP2 Gradient
   Christoph Reimann      : Effective Core Potentials
   Marius Retegan         : Local ZFS, SOC
   Christoph Riplinger    : Optimizer, TS searches, QM/MM, DLPNO-CCSD(T), (RO)-DLPNO pert. Triples
   Tobias Risthaus        : Range-separated hybrids, TD-DFT gradient, RPA, STAB
   Michael Roemelt        : Original ROCIS implementation
   Masaaki Saitow         : Open-shell DLPNO-CCSD energy and density
   Barbara Sandhoefer     : DKH picture change effects
   Avijit Sen             : IP-ROCIS
   Kantharuban Sivalingam : CASSCF convergence, NEVPT2, FIC-MRCI
   Bernardo de Souza      : ESD, SOC TD-DFT
   Georgi Stoychev        : AutoAux, RI-MP2 NMR, DLPNO-MP2 response
   Willem Van den Heuvel  : Paramagnetic NMR
   Boris Wezisla          : Elementary symmetry handling
   Frank Wennmohs         : Technical directorship


 We gratefully acknowledge several colleagues who have allowed us to
 interface, adapt or use parts of their codes:
   Stefan Grimme, W. Hujo, H. Kruse, P. Pracht,  : VdW corrections, initial TS optimization,
                  C. Bannwarth, S. Ehlert          DFT functionals, gCP, sTDA/sTD-DF
   Ed Valeev, F. Pavosevic, A. Kumar             : LibInt (2-el integral package), F12 methods
   Garnet Chan, S. Sharma, J. Yang, R. Olivares  : DMRG
   Ulf Ekstrom                                   : XCFun DFT Library
   Mihaly Kallay                                 : mrcc  (arbitrary order and MRCC methods)
   Jiri Pittner, Ondrej Demel                    : Mk-CCSD
   Frank Weinhold                                : gennbo (NPA and NBO analysis)
   Christopher J. Cramer and Donald G. Truhlar   : smd solvation model
   Lars Goerigk                                  : TD-DFT with DH, B97 family of functionals
   V. Asgeirsson, H. Jonsson                     : NEB implementation
   FAccTs GmbH                                   : IRC, NEB, NEB-TS, DLPNO-Multilevel, CI-OPT
                                                   MM, QMMM, 2- and 3-layer-ONIOM, Crystal-QMMM,
                                                   LR-CPCM, SF, NACMEs, symmetry and pop. for TD-DFT,
                                                   nearIR, NL-DFT gradient (VV10), updates on ESD,
                                                   ML-optimized integration grids
   S Lehtola, MJT Oliveira, MAL Marques          : LibXC Library
   Liviu Ungur et al                             : ANISO software


 Your calculation uses the libint2 library for the computation of 2-el integrals
 For citations please refer to: http://libint.valeyev.net

 Your ORCA version has been built with support for libXC version: 5.1.0
 For citations please refer to: https://tddft.org/programs/libxc/

 This ORCA versions uses:
   CBLAS   interface :  Fast vector & matrix operations
   LAPACKE interface :  Fast linear algebra routines
   SCALAPACK package :  Parallel linear algebra routines
   Shared memory     :  Shared parallel matrices
   BLAS/LAPACK       :  OpenBLAS 0.3.15  USE64BITINT DYNAMIC_ARCH NO_AFFINITY Haswell SINGLE_THREADED
        Core in use  :  Haswell
   Copyright (c) 2011-2014, The OpenBLAS Project


Your calculation utilizes the semiempirical GFN2-xTB method
Please cite in your paper:
C. Bannwarth, Ehlert S., S. Grimme,  J. Chem. Theory Comput., 15, (2019), 1652.
   

================================================================================

================================================================================
                                        WARNINGS
                       Please study these warnings very carefully!
================================================================================


WARNING: Geometry Optimization
  ===> : Switching off AutoStart
         For restart on a previous wavefunction, please use MOREAD

WARNING: Found dipole moment calculation with XTB calculation
  ===> : Switching off dipole moment calculation


WARNING: TRAH-SCF for XTB is not implemented!
  ===> : Turning TRAH off!

================================================================================
                                       INPUT FILE
================================================================================
NAME = /tmp/15.inp
|  1> ! XTB2 opt numfreq
|  2> * XYZ 0 1
|  3> O -0.8320 -2.0620 2.4088
|  4> C -0.3372 -2.8150 1.5846
|  5> O -0.2429 -4.1354 1.8565
|  6> C 0.2171 -2.4207 0.2033
|  7> O 0.5158 -3.5904 -0.6017
|  8> C 1.5408 -1.6413 0.5073
|  9> O 2.5347 -2.5675 0.9831
| 10> C 2.1135 -0.8822 -0.7112
| 11> O 2.1740 -1.8179 -1.8194
| 12> C 3.4953 -0.2124 -0.5432
| 13> O 4.5171 -1.1913 -0.7396
| 14> C 3.6584 0.5682 0.7628
| 15> O 2.5326 1.4143 0.9470
| 16> P 2.7200 2.7993 1.7143
| 17> O 1.4640 3.4926 2.1186
| 18> O 3.6960 2.4984 2.9373
| 19> O 3.6326 3.6771 0.7384
| 20> C -0.8651 -1.5560 -0.5440
| 21> O -0.5718 -1.4986 -1.9595
| 22> O -0.8521 -0.2351 0.0019
| 23> C -1.7195 0.7042 -0.6514
| 24> C -1.5580 2.0300 0.1175
| 25> O -2.4231 3.0570 -0.3171
| 26> P -2.1220 3.7419 -1.7335
| 27> O -1.2476 3.0048 -2.6836
| 28> O -3.5876 4.0632 -2.2976
| 29> O -1.6162 5.2036 -1.3069
| 30> C -3.1823 0.2257 -0.6972
| 31> O -3.9843 1.0619 -1.5634
| 32> C -3.2715 -1.2213 -1.2066
| 33> O -4.6275 -1.6835 -1.0381
| 34> C -2.3033 -2.1436 -0.4456
| 35> O -2.4368 -3.4692 -0.9889
| 36> H -0.6192 -4.2293 2.7564
| 37> H 1.1034 -3.2948 -1.3330
| 38> H 1.3724 -0.9293 1.3233
| 39> H 2.4781 -3.3662 0.4249
| 40> H 1.4203 -0.0884 -1.0068
| 41> H 3.1387 -2.0035 -1.9116
| 42> H 3.5972 0.4920 -1.3759
| 43> H 5.3751 -0.7710 -0.5229
| 44> H 3.7496 -0.1079 1.6216
| 45> H 4.5826 1.1584 0.7227
| 46> H 3.6358 3.1995 3.6136
| 47> H 3.0793 4.2355 0.1550
| 48> H 0.3829 -1.6125 -2.1159
| 49> H -1.3649 0.8479 -1.6777
| 50> H -1.7626 1.8542 1.1805
| 51> H -0.5198 2.3786 0.0676
| 52> H -4.0304 3.2117 -2.4888
| 53> H -2.3398 5.7048 -0.8774
| 54> H -3.6328 0.2825 0.3061
| 55> H -4.8344 0.5710 -1.6416
| 56> H -3.0887 -1.2630 -2.2899
| 57> H -4.5753 -2.6516 -1.1911
| 58> H -2.6430 -2.2000 0.5943
| 59> H -1.5355 -3.8175 -1.1615
| 60> *
| 61> 
| 62>                          ****END OF INPUT****
================================================================================

                       *****************************
                       * Geometry Optimization Run *
                       *****************************

Geometry optimization settings:
Update method            Update   .... BFGS
Choice of coordinates    CoordSys .... Z-matrix Internals
Initial Hessian          InHess   .... Almoef's Model

Convergence Tolerances:
Energy Change            TolE     ....  5.0000e-06 Eh
Max. Gradient            TolMAXG  ....  3.0000e-04 Eh/bohr
RMS Gradient             TolRMSG  ....  1.0000e-04 Eh/bohr
Max. Displacement        TolMAXD  ....  4.0000e-03 bohr
RMS Displacement         TolRMSD  ....  2.0000e-03 bohr
Strict Convergence                ....  False
------------------------------------------------------------------------------
                        ORCA OPTIMIZATION COORDINATE SETUP
------------------------------------------------------------------------------

The optimization will be done in new redundant internal coordinates
Making redundant internal coordinates   ...  (new redundants) done
Evaluating the initial hessian          ...  (Almloef) done
Evaluating the coordinates              ...  done
Calculating the B-matrix                .... done
Calculating the G-matrix                .... done
Diagonalizing the G-matrix              .... done
Small eigenvalue found = 2.302e-03
Small eigenvalue found = 2.946e-03
Small eigenvalue found = 6.439e-03
Small eigenvalue found = 1.020e-02
Small eigenvalue found = 1.480e-02
Small eigenvalue found = 1.769e-02
Small eigenvalue found = 2.061e-02
Small eigenvalue found = 2.316e-02
Small eigenvalue found = 2.628e-02
The first mode is                       ....  142
The number of degrees of freedom        ....  165

    -----------------------------------------------------------------
                    Redundant Internal Coordinates


    -----------------------------------------------------------------
         Definition                    Initial Value    Approx d2E/dq
    -----------------------------------------------------------------
      1. B(C   1,O   0)                  1.2211         1.040657   
      2. B(O   2,C   1)                  1.3514         0.644854   
      3. B(C   3,C   1)                  1.5397         0.360482   
      4. B(O   4,C   3)                  1.4510         0.447229   
      5. B(C   5,C   3)                  1.5659         0.327410   
      6. B(O   6,C   5)                  1.4395         0.466608   
      7. B(C   7,C   5)                  1.5456         0.352734   
      8. B(O   8,C   7)                  1.4517         0.446179   
      9. B(C   9,C   7)                  1.5447         0.353881   
     10. B(O  10,C   9)                  1.4286         0.485617   
     11. B(C  11,C   9)                  1.5302         0.373273   
     12. B(O  12,C  11)                  1.4203         0.500657   
     13. B(P  13,O  12)                  1.5944         0.887711   
     14. B(O  14,P  13)                  1.4905         1.300143   
     15. B(O  15,P  13)                  1.5934         0.891039   
     16. B(O  16,P  13)                  1.5987         0.873869   
     17. B(C  17,C   3)                  1.5740         0.317876   
     18. B(O  18,C  17)                  1.4467         0.454364   
     19. B(O  19,C  17)                  1.4293         0.484334   
     20. B(C  20,O  19)                  1.4358         0.472971   
     21. B(C  21,C  20)                  1.5411         0.358628   
     22. B(O  22,C  21)                  1.4114         0.517320   
     23. B(P  23,O  22)                  1.6019         0.863712   
     24. B(O  24,P  23)                  1.4868         1.318036   
     25. B(O  25,P  23)                  1.6029         0.860266   
     26. B(O  26,P  23)                  1.6045         0.855390   
     27. B(C  27,C  20)                  1.5398         0.360425   
     28. B(O  28,C  27)                  1.4466         0.454493   
     29. B(C  29,C  27)                  1.5366         0.364576   
     30. B(O  30,C  29)                  1.4425         0.461469   
     31. B(C  31,C  17)                  1.5567         0.338648   
     32. B(C  31,C  29)                  1.5386         0.362009   
     33. B(O  32,C  31)                  1.4388         0.467715   
     34. B(H  33,O   2)                  0.9799         0.483269   
     35. B(H  34,O   4)                  0.9836         0.476790   
     36. B(H  35,C   5)                  1.0960         0.352284   
     37. B(H  36,O   6)                  0.9761         0.490149   
     38. B(H  37,C   7)                  1.0945         0.354140   
     39. B(H  38,O   8)                  0.9867         0.471362   
     40. B(H  39,C   9)                  1.0954         0.352997   
     41. B(H  40,O  10)                  0.9797         0.483690   
     42. B(H  41,C  11)                  1.0968         0.351218   
     43. B(H  42,C  11)                  1.0973         0.350558   
     44. B(H  43,O  15)                  0.9760         0.490302   
     45. B(H  44,O  16)                  0.9789         0.485023   
     46. B(H  45,O  18)                  0.9741         0.493695   
     47. B(H  46,C  20)                  1.0953         0.353156   
     48. B(H  47,C  21)                  1.0967         0.351354   
     49. B(H  48,O  14)                  3.0632         0.000229   
     50. B(H  48,C  21)                  1.0963         0.351863   
     51. B(H  49,O  25)                  0.9786         0.485593   
     52. B(H  50,O  26)                  0.9794         0.484149   
     53. B(H  51,C  27)                  1.1013         0.345500   
     54. B(H  52,O  28)                  0.9848         0.474735   
     55. B(H  53,C  29)                  1.0994         0.347870   
     56. B(H  54,O  30)                  0.9815         0.480460   
     57. B(H  55,C  31)                  1.0954         0.352987   
     58. B(H  56,O  32)                  0.9816         0.480376   
     59. A(O   2,C   1,C   3)          113.9282         0.394403   
     60. A(O   0,C   1,O   2)          119.6681         0.474031   
     61. A(O   0,C   1,C   3)          126.4036         0.429343   
     62. A(C   1,O   2,H  33)          104.5722         0.367970   
     63. A(O   4,C   3,C   5)          109.5678         0.364069   
     64. A(C   1,C   3,C   5)          104.9288         0.353140   
     65. A(C   1,C   3,O   4)          111.4307         0.370126   
     66. A(O   4,C   3,C  17)          108.7236         0.362235   
     67. A(C   1,C   3,C  17)          108.6089         0.351379   
     68. A(C   5,C   3,C  17)          113.5750         0.345726   
     69. A(C   3,O   4,H  34)          107.0493         0.345011   
     70. A(O   6,C   5,H  35)          106.1407         0.333213   
     71. A(C   3,C   5,C   7)          113.8673         0.351844   
     72. A(C   3,C   5,O   6)          109.1219         0.366723   
     73. A(O   6,C   5,C   7)          108.7084         0.371445   
     74. A(C   3,C   5,H  35)          109.7555         0.316265   
     75. A(C   7,C   5,H  35)          108.9556         0.320130   
     76. A(C   5,O   6,H  36)          107.3039         0.349102   
     77. A(C   9,C   7,H  37)          106.3455         0.320576   
     78. A(C   5,C   7,C   9)          117.3007         0.356511   
     79. A(O   8,C   7,C   9)          108.9796         0.368804   
     80. A(C   5,C   7,O   8)          107.5000         0.368598   
     81. A(O   8,C   7,H  37)          106.7198         0.331039   
     82. A(C   5,C   7,H  37)          109.5376         0.320405   
     83. A(C   7,O   8,H  38)          103.4929         0.344212   
     84. A(O  10,C   9,C  11)          112.9945         0.377684   
     85. A(C   7,C   9,C  11)          114.1642         0.359959   
     86. A(C   7,C   9,O  10)          109.1316         0.374219   
     87. A(C  11,C   9,H  39)          108.1095         0.323217   
     88. A(O  10,C   9,H  39)          105.6394         0.335543   
     89. A(C   7,C   9,H  39)          106.2220         0.320406   
     90. A(C   9,O  10,H  40)          107.5796         0.350677   
     91. A(H  41,C  11,H  42)          106.8660         0.288486   
     92. A(O  12,C  11,H  41)          109.3648         0.336968   
     93. A(C   9,C  11,H  42)          109.4483         0.322850   
     94. A(C   9,C  11,H  41)          111.2650         0.322950   
     95. A(C   9,C  11,O  12)          109.2744         0.379684   
     96. A(O  12,C  11,H  42)          110.6053         0.336862   
     97. A(C  11,O  12,P  13)          119.1260         0.470105   
     98. A(O  12,P  13,O  16)          104.4946         0.558732   
     99. A(O  15,P  13,O  16)          102.8602         0.559130   
    100. A(O  14,P  13,O  16)          113.0300         0.601104   
    101. A(O  14,P  13,O  15)          113.3159         0.603365   
    102. A(O  12,P  13,O  14)          115.8200         0.602929   
    103. A(O  12,P  13,O  15)          106.1013         0.560805   
    104. A(P  13,O  15,H  43)          111.0038         0.416202   
    105. A(P  13,O  16,H  44)          110.7539         0.413967   
    106. A(O  18,C  17,O  19)          109.5835         0.388157   
    107. A(C   3,C  17,O  19)          108.6701         0.367209   
    108. A(C   3,C  17,O  18)          110.3011         0.363216   
    109. A(O  19,C  17,C  31)          109.4564         0.371224   
    110. A(O  18,C  17,C  31)          105.3149         0.367173   
    111. A(C   3,C  17,C  31)          113.4432         0.347695   
    112. A(C  17,O  18,H  45)          110.5578         0.347963   
    113. A(C  17,O  19,C  20)          115.1700         0.390887   
    114. A(O  19,C  20,C  21)          105.8119         0.373377   
    115. A(O  19,C  20,C  27)          112.5921         0.373699   
    116. A(C  21,C  20,C  27)          112.4417         0.358632   
    117. A(C  21,C  20,H  46)          108.7053         0.321129   
    118. A(C  27,C  20,H  46)          108.6911         0.321392   
    119. A(O  19,C  20,H  46)          108.4571         0.334100   
    120. A(H  47,C  21,H  48)          105.7693         0.288671   
    121. A(C  20,C  21,H  47)          109.0348         0.320860   
    122. A(O  22,C  21,H  48)          109.5766         0.338916   
    123. A(C  20,C  21,H  48)          110.4925         0.320936   
    124. A(O  22,C  21,H  47)          107.5030         0.338834   
    125. A(C  20,C  21,O  22)          114.0872         0.379205   
    126. A(C  21,O  22,P  23)          117.9163         0.470565   
    127. A(O  25,P  23,O  26)          101.4897         0.553154   
    128. A(O  24,P  23,O  26)          115.8584         0.600212   
    129. A(O  22,P  23,O  26)          102.3378         0.553574   
    130. A(O  24,P  23,O  25)          114.3436         0.600870   
    131. A(O  22,P  23,O  25)          103.0035         0.554172   
    132. A(O  22,P  23,O  24)          117.6206         0.601333   
    133. A(P  23,O  25,H  49)          107.9422         0.412901   
    134. A(P  23,O  26,H  50)          110.4802         0.412267   
    135. A(C  29,C  27,H  51)          109.0768         0.320842   
    136. A(O  28,C  27,C  29)          108.2786         0.371875   
    137. A(C  20,C  27,H  51)          110.2125         0.320242   
    138. A(C  20,C  27,C  29)          110.9556         0.359638   
    139. A(C  20,C  27,O  28)          111.3992         0.371143   
    140. A(O  28,C  27,H  51)          106.7924         0.330698   
    141. A(C  27,O  28,H  52)          103.7674         0.345695   
    142. A(O  30,C  29,C  31)          109.9808         0.372398   
    143. A(C  27,C  29,C  31)          111.3455         0.359906   
    144. A(C  31,C  29,H  53)          111.1003         0.320829   
    145. A(O  30,C  29,H  53)          105.0256         0.331908   
    146. A(C  27,C  29,H  53)          110.6533         0.321201   
    147. A(C  27,C  29,O  30)          108.5162         0.372852   
    148. A(C  29,O  30,H  54)          104.3497         0.347281   
    149. A(C  29,C  31,O  32)          107.8862         0.373262   
    150. A(C  17,C  31,O  32)          114.1803         0.369002   
    151. A(C  17,C  31,C  29)          108.8955         0.355420   
    152. A(O  32,C  31,H  55)          106.3946         0.333455   
    153. A(C  29,C  31,H  55)          107.7739         0.321597   
    154. A(C  17,C  31,H  55)          111.4652         0.318111   
    155. A(C  31,O  32,H  56)          107.9462         0.348058   
    156. D(H  33,O   2,C   1,O   0)     -0.7391         0.030693   
    157. D(H  33,O   2,C   1,C   3)    179.3732         0.030693   
    158. D(C  17,C   3,C   1,O   2)    129.4868         0.009769   
    159. D(O   4,C   3,C   1,O   0)   -170.1299         0.009769   
    160. D(O   4,C   3,C   1,O   2)      9.7489         0.009769   
    161. D(C   5,C   3,C   1,O   2)   -108.7420         0.009769   
    162. D(C  17,C   3,C   1,O   0)    -50.3920         0.009769   
    163. D(C   5,C   3,C   1,O   0)     71.3792         0.009769   
    164. D(H  34,O   4,C   3,C   1)   -163.1866         0.015751   
    165. D(H  34,O   4,C   3,C   5)    -47.5135         0.015751   
    166. D(H  34,O   4,C   3,C  17)     77.1433         0.015751   
    167. D(C   7,C   5,C   3,C   1)   -167.3503         0.008744   
    168. D(O   6,C   5,C   3,C  17)   -170.5255         0.008744   
    169. D(O   6,C   5,C   3,O   4)    -48.7352         0.008744   
    170. D(O   6,C   5,C   3,C   1)     71.0062         0.008744   
    171. D(H  35,C   5,C   3,C  17)     73.5522         0.008744   
    172. D(C   7,C   5,C   3,C  17)    -48.8820         0.008744   
    173. D(H  35,C   5,C   3,C   1)    -44.9161         0.008744   
    174. D(C   7,C   5,C   3,O   4)     72.9083         0.008744   
    175. D(H  35,C   5,C   3,O   4)   -164.6576         0.008744   
    176. D(H  36,O   6,C   5,H  35)    160.7430         0.017158   
    177. D(H  36,O   6,C   5,C   7)    -82.1899         0.017158   
    178. D(H  36,O   6,C   5,C   3)     42.5289         0.017158   
    179. D(H  37,C   7,C   5,H  35)    -57.7197         0.010012   
    180. D(C   9,C   7,C   5,O   6)    -51.6947         0.010012   
    181. D(C   9,C   7,C   5,C   3)   -173.5672         0.010012   
    182. D(H  37,C   7,C   5,C   3)     65.1530         0.010012   
    183. D(O   8,C   7,C   5,H  35)   -173.3123         0.010012   
    184. D(O   8,C   7,C   5,O   6)     71.4328         0.010012   
    185. D(H  37,C   7,C   5,O   6)   -172.9745         0.010012   
    186. D(C   9,C   7,C   5,H  35)     63.5601         0.010012   
    187. D(O   8,C   7,C   5,C   3)    -50.4396         0.010012   
    188. D(H  38,O   8,C   7,C   9)     20.9530         0.015677   
    189. D(H  38,O   8,C   7,H  37)    135.4132         0.015677   
    190. D(H  38,O   8,C   7,C   5)   -107.1450         0.015677   
    191. D(H  39,C   9,C   7,H  37)    -41.3793         0.010072   
    192. D(H  39,C   9,C   7,C   5)   -164.3068         0.010072   
    193. D(C  11,C   9,C   7,H  37)     77.6560         0.010072   
    194. D(C  11,C   9,C   7,O   8)   -167.6409         0.010072   
    195. D(C  11,C   9,C   7,C   5)    -45.2715         0.010072   
    196. D(O  10,C   9,C   7,C   5)     82.2336         0.010072   
    197. D(H  39,C   9,C   7,O   8)     73.3237         0.010072   
    198. D(O  10,C   9,C   7,O   8)    -40.1358         0.010072   
    199. D(O  10,C   9,C   7,H  37)   -154.8388         0.010072   
    200. D(H  40,O  10,C   9,C  11)    -45.1434         0.018613   
    201. D(H  40,O  10,C   9,C   7)   -173.3058         0.018613   
    202. D(H  40,O  10,C   9,H  39)     72.8548         0.018613   
    203. D(H  42,C  11,C   9,H  39)    -51.6983         0.011127   
    204. D(H  42,C  11,C   9,C   7)   -169.6597         0.011127   
    205. D(H  41,C  11,C   9,H  39)   -169.5764         0.011127   
    206. D(H  41,C  11,C   9,O  10)    -53.0318         0.011127   
    207. D(H  41,C  11,C   9,C   7)     72.4622         0.011127   
    208. D(O  12,C  11,C   9,H  39)     69.5578         0.011127   
    209. D(H  42,C  11,C   9,O  10)     64.8463         0.011127   
    210. D(O  12,C  11,C   9,O  10)   -173.8976         0.011127   
    211. D(O  12,C  11,C   9,C   7)    -48.4036         0.011127   
    212. D(P  13,O  12,C  11,H  42)    -28.3019         0.019818   
    213. D(P  13,O  12,C  11,H  41)     89.1301         0.019818   
    214. D(P  13,O  12,C  11,C   9)   -148.8534         0.019818   
    215. D(O  16,P  13,O  12,C  11)     67.3000         0.013614   
    216. D(O  15,P  13,O  12,C  11)    -40.9944         0.013614   
    217. D(O  14,P  13,O  12,C  11)   -167.6724         0.013614   
    218. D(H  43,O  15,P  13,O  12)   -161.5494         0.013712   
    219. D(H  43,O  15,P  13,O  16)     88.9929         0.013712   
    220. D(H  43,O  15,P  13,O  14)    -33.3754         0.013712   
    221. D(H  44,O  16,P  13,O  15)   -155.9460         0.013212   
    222. D(H  44,O  16,P  13,O  14)    -33.3854         0.013212   
    223. D(H  44,O  16,P  13,O  12)     93.3927         0.013212   
    224. D(C  31,C  17,C   3,C   5)   -161.5056         0.008296   
    225. D(C  31,C  17,C   3,O   4)     76.2356         0.008296   
    226. D(C  31,C  17,C   3,C   1)    -45.1772         0.008296   
    227. D(O  19,C  17,C   3,C   1)     76.8113         0.008296   
    228. D(O  18,C  17,C   3,C   5)     80.6307         0.008296   
    229. D(O  18,C  17,C   3,O   4)    -41.6281         0.008296   
    230. D(O  19,C  17,C   3,O   4)   -161.7759         0.008296   
    231. D(O  18,C  17,C   3,C   1)   -163.0410         0.008296   
    232. D(O  19,C  17,C   3,C   5)    -39.5170         0.008296   
    233. D(H  45,O  18,C  17,C  31)   -149.5769         0.016260   
    234. D(H  45,O  18,C  17,O  19)     92.7788         0.016260   
    235. D(H  45,O  18,C  17,C   3)    -26.8174         0.016260   
    236. D(C  20,O  19,C  17,C  31)    -60.1999         0.018513   
    237. D(C  20,O  19,C  17,O  18)     54.8239         0.018513   
    238. D(C  20,O  19,C  17,C   3)    175.4159         0.018513   
    239. D(H  46,C  20,O  19,C  17)    -64.5933         0.017637   
    240. D(C  27,C  20,O  19,C  17)     55.7249         0.017637   
    241. D(C  21,C  20,O  19,C  17)    178.9253         0.017637   
    242. D(H  48,C  21,C  20,C  27)   -175.8372         0.010324   
    243. D(H  48,C  21,C  20,O  19)     60.8673         0.010324   
    244. D(H  47,C  21,C  20,H  46)   -171.2851         0.010324   
    245. D(H  47,C  21,C  20,C  27)     68.3237         0.010324   
    246. D(H  47,C  21,C  20,O  19)    -54.9718         0.010324   
    247. D(O  22,C  21,C  20,H  46)     68.5338         0.010324   
    248. D(O  22,C  21,C  20,C  27)    -51.8574         0.010324   
    249. D(H  48,C  21,C  20,H  46)    -55.4459         0.010324   
    250. D(O  22,C  21,C  20,O  19)   -175.1529         0.010324   
    251. D(P  23,O  22,C  21,H  48)     52.1298         0.021209   
    252. D(P  23,O  22,C  21,H  47)    166.6232         0.021209   
    253. D(P  23,O  22,C  21,C  20)    -72.3410         0.021209   
    254. D(O  26,P  23,O  22,C  21)   -109.4728         0.012922   
    255. D(O  25,P  23,O  22,C  21)    145.4703         0.012922   
    256. D(O  24,P  23,O  22,C  21)     18.7217         0.012922   
    257. D(H  49,O  25,P  23,O  26)   -173.2807         0.012824   
    258. D(H  49,O  25,P  23,O  24)     61.2361         0.012824   
    259. D(H  49,O  25,P  23,O  22)    -67.5734         0.012824   
    260. D(H  50,O  26,P  23,O  25)     40.9424         0.012687   
    261. D(H  50,O  26,P  23,O  24)    165.4112         0.012687   
    262. D(H  50,O  26,P  23,O  22)    -65.2880         0.012687   
    263. D(H  51,C  27,C  20,H  46)   -167.7232         0.010420   
    264. D(H  51,C  27,C  20,C  21)    -47.3238         0.010420   
    265. D(H  51,C  27,C  20,O  19)     72.0934         0.010420   
    266. D(C  29,C  27,C  20,H  46)     71.3493         0.010420   
    267. D(C  29,C  27,C  20,C  21)   -168.2513         0.010420   
    268. D(C  29,C  27,C  20,O  19)    -48.8341         0.010420   
    269. D(O  28,C  27,C  20,H  46)    -49.3678         0.010420   
    270. D(O  28,C  27,C  20,C  21)     71.0316         0.010420   
    271. D(O  28,C  27,C  20,O  19)   -169.5512         0.010420   
    272. D(H  52,O  28,C  27,H  51)    -69.6191         0.016270   
    273. D(H  52,O  28,C  27,C  29)     47.7172         0.016270   
    274. D(H  52,O  28,C  27,C  20)    169.9917         0.016270   
    275. D(H  53,C  29,C  27,C  20)    -73.8535         0.010645   
    276. D(C  31,C  29,C  27,H  51)    -71.3674         0.010645   
    277. D(C  31,C  29,C  27,O  28)    172.7731         0.010645   
    278. D(C  31,C  29,C  27,C  20)     50.2279         0.010645   
    279. D(O  30,C  29,C  27,H  51)     49.8163         0.010645   
    280. D(O  30,C  29,C  27,O  28)    -66.0432         0.010645   
    281. D(H  53,C  29,C  27,O  28)     48.6918         0.010645   
    282. D(O  30,C  29,C  27,C  20)    171.4115         0.010645   
    283. D(H  53,C  29,C  27,H  51)    164.5512         0.010645   
    284. D(H  54,O  30,C  29,H  53)     73.6047         0.016778   
    285. D(H  54,O  30,C  29,C  31)    -46.0135         0.016778   
    286. D(H  54,O  30,C  29,C  27)   -168.0337         0.016778   
    287. D(H  55,C  31,C  29,H  53)   -170.0710         0.010506   
    288. D(H  55,C  31,C  29,O  30)    -54.2233         0.010506   
    289. D(H  55,C  31,C  29,C  27)     66.1009         0.010506   
    290. D(O  32,C  31,C  29,H  53)    -55.5577         0.010506   
    291. D(O  32,C  31,C  29,O  30)     60.2900         0.010506   
    292. D(O  32,C  31,C  29,C  27)   -179.3858         0.010506   
    293. D(C  17,C  31,C  29,H  53)     68.8719         0.010506   
    294. D(C  17,C  31,C  29,O  30)   -175.2804         0.010506   
    295. D(C  17,C  31,C  29,C  27)    -54.9562         0.010506   
    296. D(H  55,C  31,C  17,O  19)    -60.3531         0.009292   
    297. D(H  55,C  31,C  17,O  18)   -178.0833         0.009292   
    298. D(H  55,C  31,C  17,C   3)     61.1967         0.009292   
    299. D(O  32,C  31,C  17,O  19)    179.0491         0.009292   
    300. D(O  32,C  31,C  17,O  18)     61.3189         0.009292   
    301. D(O  32,C  31,C  17,C   3)    -59.4011         0.009292   
    302. D(C  29,C  31,C  17,O  19)     58.4164         0.009292   
    303. D(C  29,C  31,C  17,O  18)    -59.3138         0.009292   
    304. D(C  29,C  31,C  17,C   3)    179.9662         0.009292   
    305. D(H  56,O  32,C  31,H  55)   -112.3086         0.017241   
    306. D(H  56,O  32,C  31,C  29)    132.2676         0.017241   
    307. D(H  56,O  32,C  31,C  17)     11.0745         0.017241   
    -----------------------------------------------------------------

Number of atoms                         .... 57
Number of degrees of freedom            .... 307

         *************************************************************
         *                GEOMETRY OPTIMIZATION CYCLE   1            *
         *************************************************************
---------------------------------
CARTESIAN COORDINATES (ANGSTROEM)
---------------------------------
  O    -0.832000   -2.062000    2.408800
  C    -0.337200   -2.815000    1.584600
  O    -0.242900   -4.135400    1.856500
  C     0.217100   -2.420700    0.203300
  O     0.515800   -3.590400   -0.601700
  C     1.540800   -1.641300    0.507300
  O     2.534700   -2.567500    0.983100
  C     2.113500   -0.882200   -0.711200
  O     2.174000   -1.817900   -1.819400
  C     3.495300   -0.212400   -0.543200
  O     4.517100   -1.191300   -0.739600
  C     3.658400    0.568200    0.762800
  O     2.532600    1.414300    0.947000
  P     2.720000    2.799300    1.714300
  O     1.464000    3.492600    2.118600
  O     3.696000    2.498400    2.937300
  O     3.632600    3.677100    0.738400
  C    -0.865100   -1.556000   -0.544000
  O    -0.571800   -1.498600   -1.959500
  O    -0.852100   -0.235100    0.001900
  C    -1.719500    0.704200   -0.651400
  C    -1.558000    2.030000    0.117500
  O    -2.423100    3.057000   -0.317100
  P    -2.122000    3.741900   -1.733500
  O    -1.247600    3.004800   -2.683600
  O    -3.587600    4.063200   -2.297600
  O    -1.616200    5.203600   -1.306900
  C    -3.182300    0.225700   -0.697200
  O    -3.984300    1.061900   -1.563400
  C    -3.271500   -1.221300   -1.206600
  O    -4.627500   -1.683500   -1.038100
  C    -2.303300   -2.143600   -0.445600
  O    -2.436800   -3.469200   -0.988900
  H    -0.619200   -4.229300    2.756400
  H     1.103400   -3.294800   -1.333000
  H     1.372400   -0.929300    1.323300
  H     2.478100   -3.366200    0.424900
  H     1.420300   -0.088400   -1.006800
  H     3.138700   -2.003500   -1.911600
  H     3.597200    0.492000   -1.375900
  H     5.375100   -0.771000   -0.522900
  H     3.749600   -0.107900    1.621600
  H     4.582600    1.158400    0.722700
  H     3.635800    3.199500    3.613600
  H     3.079300    4.235500    0.155000
  H     0.382900   -1.612500   -2.115900
  H    -1.364900    0.847900   -1.677700
  H    -1.762600    1.854200    1.180500
  H    -0.519800    2.378600    0.067600
  H    -4.030400    3.211700   -2.488800
  H    -2.339800    5.704800   -0.877400
  H    -3.632800    0.282500    0.306100
  H    -4.834400    0.571000   -1.641600
  H    -3.088700   -1.263000   -2.289900
  H    -4.575300   -2.651600   -1.191100
  H    -2.643000   -2.200000    0.594300
  H    -1.535500   -3.817500   -1.161500

----------------------------
CARTESIAN COORDINATES (A.U.)
----------------------------
  NO LB    ZA    FRAG    MASS        X           Y           Z
   0 O   8.0000    0    15.999   -1.572252   -3.896615    4.551972
   1 C   6.0000    0    12.011   -0.637216   -5.319579    2.994460
   2 O   8.0000    0    15.999   -0.459014   -7.814773    3.508277
   3 C   6.0000    0    12.011    0.410260   -4.574460    0.384181
   4 O   8.0000    0    15.999    0.974721   -6.784873   -1.137048
   5 C   6.0000    0    12.011    2.911690   -3.101608    0.958658
   6 O   8.0000    0    15.999    4.789889   -4.851872    1.857790
   7 C   6.0000    0    12.011    3.993936   -1.667116   -1.343973
   8 O   8.0000    0    15.999    4.108265   -3.435333   -3.438168
   9 C   6.0000    0    12.011    6.605160   -0.401378   -1.026499
  10 O   8.0000    0    15.999    8.536082   -2.251231   -1.397641
  11 C   6.0000    0    12.011    6.913374    1.073742    1.441483
  12 O   8.0000    0    15.999    4.785920    2.672640    1.789571
  13 P  15.0000    0    30.974    5.140055    5.289910    3.239558
  14 O   8.0000    0    15.999    2.766559    6.600057    4.003574
  15 O   8.0000    0    15.999    6.984428    4.721292    5.550693
  16 O   8.0000    0    15.999    6.864619    6.948712    1.395374
  17 C   6.0000    0    12.011   -1.634802   -2.940414   -1.028011
  18 O   8.0000    0    15.999   -1.080545   -2.831944   -3.702918
  19 O   8.0000    0    15.999   -1.610236   -0.444275    0.003590
  20 C   6.0000    0    12.011   -3.249384    1.330745   -1.230968
  21 C   6.0000    0    12.011   -2.944193    3.836144    0.222043
  22 O   8.0000    0    15.999   -4.578995    5.776893   -0.599232
  23 P  15.0000    0    30.974   -4.009999    7.071166   -3.275840
  24 O   8.0000    0    15.999   -2.357622    5.678249   -5.071269
  25 O   8.0000    0    15.999   -6.779581    7.678335   -4.341835
  26 O   8.0000    0    15.999   -3.054175    9.833379   -2.469683
  27 C   6.0000    0    12.011   -6.013675    0.426511   -1.317517
  28 O   8.0000    0    15.999   -7.529236    2.006700   -2.954398
  29 C   6.0000    0    12.011   -6.182239   -2.307923   -2.280144
  30 O   8.0000    0    15.999   -8.744708   -3.181354   -1.961725
  31 C   6.0000    0    12.011   -4.352606   -4.050817   -0.842062
  32 O   8.0000    0    15.999   -4.604885   -6.555838   -1.868750
  33 H   1.0000    0     1.008   -1.170118   -7.992219    5.208841
  34 H   1.0000    0     1.008    2.085124   -6.226270   -2.519005
  35 H   1.0000    0     1.008    2.593460   -1.756122    2.500675
  36 H   1.0000    0     1.008    4.682930   -6.361196    0.802945
  37 H   1.0000    0     1.008    2.683978   -0.167052   -1.902576
  38 H   1.0000    0     1.008    5.931283   -3.786066   -3.612400
  39 H   1.0000    0     1.008    6.797723    0.929745   -2.600074
  40 H   1.0000    0     1.008   10.157467   -1.456979   -0.988138
  41 H   1.0000    0     1.008    7.085717   -0.203901    3.064380
  42 H   1.0000    0     1.008    8.659859    2.189059    1.365705
  43 H   1.0000    0     1.008    6.870666    6.046179    6.828714
  44 H   1.0000    0     1.008    5.819034    8.003935    0.292908
  45 H   1.0000    0     1.008    0.723576   -3.047183   -3.998472
  46 H   1.0000    0     1.008   -2.579287    1.602299   -3.170394
  47 H   1.0000    0     1.008   -3.330831    3.503930    2.230822
  48 H   1.0000    0     1.008   -0.982280    4.494903    0.127745
  49 H   1.0000    0     1.008   -7.616352    6.069233   -4.703150
  50 H   1.0000    0     1.008   -4.421581   10.780510   -1.658046
  51 H   1.0000    0     1.008   -6.864997    0.533848    0.578445
  52 H   1.0000    0     1.008   -9.135692    1.079034   -3.102174
  53 H   1.0000    0     1.008   -5.836797   -2.386724   -4.327284
  54 H   1.0000    0     1.008   -8.646064   -5.010798   -2.250853
  55 H   1.0000    0     1.008   -4.994546   -4.157397    1.123064
  56 H   1.0000    0     1.008   -2.901674   -7.214030   -2.194917

      -----------------------------------------------------------      
     |                   =====================                   |     
     |                           x T B                           |     
     |                   =====================                   |     
     |                         S. Grimme                         |     
     |          Mulliken Center for Theoretical Chemistry        |     
     |                    University of Bonn                     |     
      -----------------------------------------------------------      

   * xtb version 6.5.1 (579679a) compiled by 'ehlert@majestix' on 2022-07-11

   xtb is free software: you can redistribute it and/or modify it under
   the terms of the GNU Lesser General Public License as published by
   the Free Software Foundation, either version 3 of the License, or
   (at your option) any later version.
   
   xtb is distributed in the hope that it will be useful,
   but WITHOUT ANY WARRANTY; without even the implied warranty of
   MERCHANTABILITY or FITNESS FOR A PARTICULAR PURPOSE.  See the
   GNU Lesser General Public License for more details.
   
   Cite this work as:
   * C. Bannwarth, E. Caldeweyher, S. Ehlert, A. Hansen, P. Pracht,
     J. Seibert, S. Spicher, S. Grimme, WIREs Comput. Mol. Sci., 2020, 11,
     e01493. DOI: 10.1002/wcms.1493
   
   for GFN2-xTB:
   * C. Bannwarth, S. Ehlert and S. Grimme., J. Chem. Theory Comput., 2019,
     15, 1652-1671. DOI: 10.1021/acs.jctc.8b01176
   for GFN1-xTB:
   * S. Grimme, C. Bannwarth, P. Shushkov, J. Chem. Theory Comput., 2017,
     13, 1989-2009. DOI: 10.1021/acs.jctc.7b00118
   for GFN0-xTB:
   * P. Pracht, E. Caldeweyher, S. Ehlert, S. Grimme, ChemRxiv, 2019, preprint.
     DOI: 10.26434/chemrxiv.8326202.v1
   for GFN-FF:
   * S. Spicher and S. Grimme, Angew. Chem. Int. Ed., 2020, 59, 15665-15673.
     DOI: 10.1002/anie.202004239
   
   for ALPB and GBSA implicit solvation:
   * S. Ehlert, M. Stahn, S. Spicher, S. Grimme, J. Chem. Theory Comput.,
     2021, 17, 4250-4261. DOI: 10.1021/acs.jctc.1c00471
   
   for DFT-D4:
   * E. Caldeweyher, C. Bannwarth and S. Grimme, J. Chem. Phys., 2017,
     147, 034112. DOI: 10.1063/1.4993215
   * E. Caldeweyher, S. Ehlert, A. Hansen, H. Neugebauer, S. Spicher,
     C. Bannwarth and S. Grimme, J. Chem. Phys., 2019, 150, 154122.
     DOI: 10.1063/1.5090222
   * E. Caldeweyher, J.-M. Mewes, S. Ehlert and S. Grimme, Phys. Chem. Chem. Phys.
     2020, 22, 8499-8512. DOI: 10.1039/D0CP00502A
   
   for sTDA-xTB:
   * S. Grimme and C. Bannwarth, J. Chem. Phys., 2016, 145, 054103.
     DOI: 10.1063/1.4959605
   
   in the mass-spec context:
   * V. Asgeirsson, C. Bauer and S. Grimme, Chem. Sci., 2017, 8, 4879.
     DOI: 10.1039/c7sc00601b
   * J. Koopman and S. Grimme, ACS Omega 2019, 4, 12, 15120-15133.
     DOI: 10.1021/acsomega.9b02011
   
   for metadynamics refer to:
   * S. Grimme, J. Chem. Theory Comput., 2019, 155, 2847-2862
     DOI: 10.1021/acs.jctc.9b00143
   
   for SPH calculations refer to:
   * S. Spicher and S. Grimme, J. Chem. Theory Comput., 2021, 17, 1701-1714
     DOI: 10.1021/acs.jctc.0c01306
   
   with help from (in alphabetical order)
   P. Atkinson, C. Bannwarth, F. Bohle, G. Brandenburg, E. Caldeweyher
   M. Checinski, S. Dohm, S. Ehlert, S. Ehrlich, I. Gerasimov, C. Hölzer
   A. Katbashev, J. Koopman, C. Lavigne, S. Lehtola, F. März, M. Müller,
   F. Musil, H. Neugebauer, J. Pisarek, C. Plett, P. Pracht, F. Pultar,
   J. Seibert, P. Shushkov, S. Spicher, M. Stahn, M. Steiner, T. Strunk,
   J. Stückrath, T. Rose, and J. Unsleber
   
 * started run on 2023/12/06 at 19:46:06.834     

           -------------------------------------------------
          |                Calculation Setup                |
           -------------------------------------------------

          program call               : otool_xtb /tmp/15_XTB.xyz --grad -c 0 -u 0 -P 1 --namespace /tmp/15 --input /tmp/15_XTB.input.tmp --acc 1.000000
          calculation namespace      : /tmp/15
          coordinate file            : /tmp/15_XTB.xyz
          omp threads                :                     1

   ID    Z sym.   atoms
    1    8 O      1, 3, 5, 7, 9, 11, 13, 15-17, 19, 20, 23, 25-27, 29, 31, 33
    2    6 C      2, 4, 6, 8, 10, 12, 18, 21, 22, 28, 30, 32
    3   15 P      14, 24
    4    1 H      34-57

           -------------------------------------------------
          |                 G F N 2 - x T B                 |
           -------------------------------------------------

        Reference                      10.1021/acs.jctc.8b01176
      * Hamiltonian:
        H0-scaling (s, p, d)           1.850000    2.230000    2.230000
        zeta-weighting                 0.500000
      * Dispersion:
        s8                             2.700000
        a1                             0.520000
        a2                             5.000000
        s9                             5.000000
      * Repulsion:
        kExp                           1.500000    1.000000
        rExp                           1.000000
      * Coulomb:
        alpha                          2.000000
        third order                    shell-resolved
        anisotropic                    true
        a3                             3.000000
        a5                             4.000000
        cn-shift                       1.200000
        cn-exp                         4.000000
        max-rad                        5.000000


          ...................................................
          :                      SETUP                      :
          :.................................................:
          :  # basis functions                 168          :
          :  # atomic orbitals                 166          :
          :  # shells                           92          :
          :  # electrons                       196          :
          :  max. iterations                   250          :
          :  Hamiltonian                  GFN2-xTB          :
          :  restarted?                      false          :
          :  GBSA solvation                  false          :
          :  PC potential                    false          :
          :  electronic temp.          300.0000000     K    :
          :  accuracy                    1.0000000          :
          :  -> integral cutoff          0.2500000E+02      :
          :  -> integral neglect         0.1000000E-07      :
          :  -> SCF convergence          0.1000000E-05 Eh   :
          :  -> wf. convergence          0.1000000E-03 e    :
          :  Broyden damping             0.4000000          :
          ...................................................

 iter      E             dE          RMSdq      gap      omega  full diag
   1   -121.0706749 -0.121071E+03  0.629E+00    4.97       0.0  T
   2   -121.2171336 -0.146459E+00  0.351E+00    3.88       1.0  T
   3   -121.2364106 -0.192770E-01  0.110E+00    4.06       1.0  T
   4   -121.2516409 -0.152303E-01  0.505E-01    3.62       1.0  T
   5   -121.2532482 -0.160727E-02  0.175E-01    3.82       1.0  T
   6   -121.2536057 -0.357515E-03  0.693E-02    3.76       1.0  T
   7   -121.2536250 -0.193002E-04  0.287E-02    3.78       1.0  T
   8   -121.2536327 -0.774832E-05  0.114E-02    3.78       1.2  T
   9   -121.2536336 -0.889047E-06  0.469E-03    3.78       2.8  T
  10   -121.2536339 -0.274105E-06  0.144E-03    3.78       9.2  T
  11   -121.2536339 -0.113115E-07  0.644E-04    3.78      20.6  T
  12   -121.2536339 -0.243431E-08  0.184E-04    3.78      72.0  T

   *** convergence criteria satisfied after 12 iterations ***

         #    Occupation            Energy/Eh            Energy/eV
      -------------------------------------------------------------
         1        2.0000           -0.7601494             -20.6847
       ...           ...                  ...                  ...
        92        2.0000           -0.4332102             -11.7882
        93        2.0000           -0.4258043             -11.5867
        94        2.0000           -0.4238304             -11.5330
        95        2.0000           -0.4217642             -11.4768
        96        2.0000           -0.4147083             -11.2848
        97        2.0000           -0.4112009             -11.1893
        98        2.0000           -0.4056618             -11.0386 (HOMO)
        99                         -0.2668722              -7.2620 (LUMO)
       100                         -0.1055315              -2.8717
       101                         -0.0869099              -2.3649
       102                         -0.0684441              -1.8625
       103                         -0.0608217              -1.6550
       ...                                ...                  ...
       166                          1.2125704              32.9957
      -------------------------------------------------------------
                  HL-Gap            0.1387895 Eh            3.7767 eV
             Fermi-level           -0.3362670 Eh           -9.1503 eV

 SCC (total)                   0 d,  0 h,  0 min,  0.138 sec
 SCC setup                      ...        0 min,  0.000 sec (  0.343%)
 Dispersion                     ...        0 min,  0.001 sec (  0.527%)
 classical contributions        ...        0 min,  0.000 sec (  0.123%)
 integral evaluation            ...        0 min,  0.019 sec ( 13.526%)
 iterations                     ...        0 min,  0.057 sec ( 41.176%)
 molecular gradient             ...        0 min,  0.060 sec ( 43.764%)
 printout                       ...        0 min,  0.001 sec (  0.521%)

         :::::::::::::::::::::::::::::::::::::::::::::::::::::
         ::                     SUMMARY                     ::
         :::::::::::::::::::::::::::::::::::::::::::::::::::::
         :: total energy            -120.542555495436 Eh    ::
         :: gradient norm              0.135326030099 Eh/a0 ::
         :: HOMO-LUMO gap              3.776654683822 eV    ::
         ::.................................................::
         :: SCC energy              -121.253633894982 Eh    ::
         :: -> isotropic ES            0.472896584929 Eh    ::
         :: -> anisotropic ES         -0.021001495984 Eh    ::
         :: -> anisotropic XC         -0.015574409826 Eh    ::
         :: -> dispersion             -0.066094585219 Eh    ::
         :: repulsion energy           0.709068819513 Eh    ::
         :: add. restraining           0.000000000000 Eh    ::
         :: total charge               0.000000000000 e     ::
         :::::::::::::::::::::::::::::::::::::::::::::::::::::


Property printout bound to 'properties.out'

           -------------------------------------------------
          | TOTAL ENERGY             -120.542555495436 Eh   |
          | GRADIENT NORM               0.135326030099 Eh/α |
          | HOMO-LUMO GAP               3.776654683822 eV   |
           -------------------------------------------------

------------------------------------------------------------------------
 * finished run on 2023/12/06 at 19:46:06.997     
------------------------------------------------------------------------
 total:
 * wall-time:     0 d,  0 h,  0 min,  0.163 sec
 *  cpu-time:     0 d,  0 h,  0 min,  0.160 sec
 * ratio c/w:     0.981 speedup
 SCF:
 * wall-time:     0 d,  0 h,  0 min,  0.138 sec
 *  cpu-time:     0 d,  0 h,  0 min,  0.140 sec
 * ratio c/w:     1.015 speedup


-------------------------   --------------------
FINAL SINGLE POINT ENERGY      -120.542555495440
-------------------------   --------------------

------------------------------------------------------------------------------
                         ORCA GEOMETRY RELAXATION STEP
------------------------------------------------------------------------------

Reading the OPT-File                    .... done
Getting information on internals        .... done
Copying old internal coords+grads       .... done
Making the new internal coordinates     .... (new redundants).... done
Validating the new internal coordinates .... (new redundants).... done
Calculating the B-matrix                .... done
Calculating the G,G- and P matrices     .... done
Transforming gradient to internals      .... done
Projecting the internal gradient        .... done
Number of atoms                         ....  57
Number of internal coordinates          .... 307
Current Energy                          ....  -120.542555495 Eh
Current gradient norm                   ....     0.135326030 Eh/bohr
Maximum allowed component of the step   ....  0.300
Current trust radius                    ....  0.300
Evaluating the initial hessian          ....  (Almloef) done
Projecting the Hessian                  .... done
Forming the augmented Hessian           .... done
Diagonalizing the augmented Hessian     .... done
Last element of RFO vector              ....  0.939047620
Lowest eigenvalues of augmented Hessian:
 -0.031171260  0.000783186  0.008397595  0.009040736  0.009771487
Length of the computed step             ....  0.366101876
Warning: the length of the step is outside the trust region - taking restricted step instead
The input lambda is                     ....    -0.031171
   iter:   1  x=   -0.045930  g=    2.983449 f(x)=     0.044031
   iter:   2  x=   -0.054323  g=    1.518034 f(x)=     0.012742
   iter:   3  x=   -0.055824  g=    1.140105 f(x)=     0.001711
   iter:   4  x=   -0.055860  g=    1.088921 f(x)=     0.000039
   iter:   5  x=   -0.055860  g=    1.087749 f(x)=     0.000000
   iter:   6  x=   -0.055860  g=    1.087749 f(x)=     0.000000
The output lambda is                    ....    -0.055860 (6 iterations)
The final length of the internal step   ....  0.300000000
Converting the step to cartesian space:
 Initial RMS(Int)=    0.0171219044
Transforming coordinates:
 Iter   0:  RMS(Cart)=    0.1162846672 RMS(Int)=    0.3579729332
 Iter   1:  RMS(Cart)=    0.0039508165 RMS(Int)=    0.0014776022
 Iter   2:  RMS(Cart)=    0.0002585523 RMS(Int)=    0.0000520619
 Iter   3:  RMS(Cart)=    0.0000220186 RMS(Int)=    0.0000109641
 Iter   4:  RMS(Cart)=    0.0000018552 RMS(Int)=    0.0000005288
 Iter   5:  RMS(Cart)=    0.0000001677 RMS(Int)=    0.0000000953
 Iter   6:  RMS(Cart)=    0.0000000152 RMS(Int)=    0.0000000054
done
Storing new coordinates                 .... done

                                .--------------------.
          ----------------------|Geometry convergence|-------------------------
          Item                value                   Tolerance       Converged
          ---------------------------------------------------------------------
          RMS gradient        0.0068208296            0.0001000000      NO
          MAX gradient        0.0374827230            0.0003000000      NO
          RMS step            0.0171219044            0.0020000000      NO
          MAX step            0.0584072232            0.0040000000      NO
          ........................................................
          Max(Bonds)      0.0306      Max(Angles)    2.50
          Max(Dihed)        3.35      Max(Improp)    0.00
          ---------------------------------------------------------------------

The optimization has not yet converged - more geometry cycles are needed


    ---------------------------------------------------------------------------
                         Redundant Internal Coordinates
                            (Angstroem and degrees)

        Definition                    Value    dE/dq     Step     New-Value
    ----------------------------------------------------------------------------
     1. B(C   1,O   0)                1.2211  0.036209 -0.0175    1.2036   
     2. B(O   2,C   1)                1.3514  0.016377 -0.0124    1.3390   
     3. B(C   3,C   1)                1.5397  0.014606 -0.0186    1.5211   
     4. B(O   4,C   3)                1.4510  0.029124 -0.0306    1.4204   
     5. B(C   5,C   3)                1.5659  0.009209 -0.0127    1.5532   
     6. B(O   6,C   5)                1.4395  0.019635 -0.0199    1.4196   
     7. B(C   7,C   5)                1.5456  0.003576 -0.0046    1.5410   
     8. B(O   8,C   7)                1.4517  0.010615 -0.0112    1.4405   
     9. B(C   9,C   7)                1.5447  0.009373 -0.0121    1.5326   
    10. B(O  10,C   9)                1.4286  0.007537 -0.0074    1.4212   
    11. B(C  11,C   9)                1.5302  0.003443 -0.0043    1.5260   
    12. B(O  12,C  11)                1.4203  0.003129 -0.0030    1.4173   
    13. B(P  13,O  12)                1.5944  0.005567 -0.0031    1.5913   
    14. B(O  14,P  13)                1.4905  0.037483 -0.0146    1.4759   
    15. B(O  15,P  13)                1.5934  0.003535 -0.0020    1.5914   
    16. B(O  16,P  13)                1.5987 -0.003511  0.0020    1.6007   
    17. B(C  17,C   3)                1.5740  0.012689 -0.0180    1.5560   
    18. B(O  18,C  17)                1.4467  0.027537 -0.0286    1.4181   
    19. B(O  19,C  17)                1.4293  0.020548 -0.0213    1.4080   
    20. B(C  20,O  19)                1.4358  0.011713 -0.0127    1.4231   
    21. B(C  21,C  20)                1.5411  0.012007 -0.0153    1.5258   
    22. B(O  22,C  21)                1.4114  0.007344 -0.0068    1.4046   
    23. B(P  23,O  22)                1.6019 -0.001644  0.0009    1.6028   
    24. B(O  24,P  23)                1.4868  0.032415 -0.0125    1.4743   
    25. B(O  25,P  23)                1.6029  0.007691 -0.0044    1.5985   
    26. B(O  26,P  23)                1.6045  0.009609 -0.0056    1.5989   
    27. B(C  27,C  20)                1.5398  0.010460 -0.0130    1.5267   
    28. B(O  28,C  27)                1.4466  0.017699 -0.0184    1.4283   
    29. B(C  29,C  27)                1.5366  0.008508 -0.0092    1.5274   
    30. B(O  30,C  29)                1.4425  0.014427 -0.0148    1.4277   
    31. B(C  31,C  17)                1.5567  0.015927 -0.0218    1.5349   
    32. B(C  31,C  29)                1.5386  0.008271 -0.0093    1.5292   
    33. B(O  32,C  31)                1.4388  0.016954 -0.0171    1.4217   
    34. B(H  33,O   2)                0.9799  0.006019 -0.0059    0.9740   
    35. B(H  34,O   4)                0.9836  0.007899 -0.0078    0.9757   
    36. B(H  35,C   5)                1.0960  0.002771 -0.0036    1.0924   
    37. B(H  36,O   6)                0.9761  0.006557 -0.0064    0.9697   
    38. B(H  37,C   7)                1.0945 -0.000314  0.0004    1.0949   
    39. B(H  38,O   8)                0.9867  0.012572 -0.0126    0.9741   
    40. B(H  39,C   9)                1.0954 -0.005211  0.0067    1.1022   
    41. B(H  40,O  10)                0.9797  0.014873 -0.0146    0.9651   
    42. B(H  41,C  11)                1.0968  0.000635 -0.0008    1.0960   
    43. B(H  42,C  11)                1.0973  0.000408 -0.0005    1.0968   
    44. B(H  43,O  15)                0.9760  0.017138 -0.0166    0.9594   
    45. B(H  44,O  16)                0.9789  0.018690 -0.0183    0.9606   
    46. B(H  45,O  18)                0.9741  0.006517 -0.0063    0.9678   
    47. B(H  46,C  20)                1.0953 -0.001239  0.0016    1.0969   
    48. B(H  47,C  21)                1.0967  0.001315 -0.0017    1.0950   
    49. B(H  48,O  14)                3.0632  0.001478 -0.0139    3.0493   
    50. B(H  48,C  21)                1.0963  0.002197 -0.0028    1.0935   
    51. B(H  49,O  25)                0.9786  0.015316 -0.0150    0.9636   
    52. B(H  50,O  26)                0.9794  0.018061 -0.0177    0.9617   
    53. B(H  51,C  27)                1.1013  0.001081 -0.0014    1.0998   
    54. B(H  52,O  28)                0.9848  0.014528 -0.0145    0.9703   
    55. B(H  53,C  29)                1.0994  0.000834 -0.0011    1.0983   
    56. B(H  54,O  30)                0.9815  0.013119 -0.0129    0.9686   
    57. B(H  55,C  31)                1.0954 -0.000998  0.0013    1.0967   
    58. B(H  56,O  32)                0.9816  0.011706 -0.0116    0.9700   
    59. A(O   2,C   1,C   3)          113.93  0.004272   -0.48    113.45   
    60. A(O   0,C   1,O   2)          119.67 -0.013539    1.52    121.19   
    61. A(O   0,C   1,C   3)          126.40  0.009264   -1.04    125.37   
    62. A(C   1,O   2,H  33)          104.57 -0.012291    1.66    106.23   
    63. A(O   4,C   3,C   5)          109.57 -0.003708    0.92    110.48   
    64. A(C   1,C   3,C   5)          104.93  0.000124   -0.12    104.81   
    65. A(C   1,C   3,O   4)          111.43  0.005119   -1.48    109.96   
    66. A(O   4,C   3,C  17)          108.72 -0.000932    0.33    109.05   
    67. A(C   1,C   3,C  17)          108.61 -0.002736    0.40    109.01   
    68. A(C   5,C   3,C  17)          113.58  0.002417   -0.14    113.44   
    69. A(C   3,O   4,H  34)          107.05  0.002656   -0.38    106.67   
    70. A(O   6,C   5,H  35)          106.14  0.000079    0.03    106.17   
    71. A(C   3,C   5,C   7)          113.87  0.000771   -0.10    113.77   
    72. A(C   3,C   5,O   6)          109.12  0.003062   -0.41    108.71   
    73. A(O   6,C   5,C   7)          108.71 -0.005425    1.29    110.00   
    74. A(C   3,C   5,H  35)          109.76  0.000541   -0.56    109.20   
    75. A(C   7,C   5,H  35)          108.96  0.000865   -0.23    108.73   
    76. A(C   5,O   6,H  36)          107.30 -0.001662    0.24    107.54   
    77. A(C   9,C   7,H  37)          106.35 -0.005493    0.79    107.13   
    78. A(C   5,C   7,C   9)          117.30  0.009539   -1.87    115.43   
    79. A(O   8,C   7,C   9)          108.98  0.003923   -0.79    108.19   
    80. A(C   5,C   7,O   8)          107.50 -0.009613    1.59    109.09   
    81. A(O   8,C   7,H  37)          106.72 -0.000179    0.76    107.48   
    82. A(C   5,C   7,H  37)          109.54  0.001292   -0.29    109.25   
    83. A(C   7,O   8,H  38)          103.49 -0.007602    1.09    104.58   
    84. A(O  10,C   9,C  11)          112.99  0.000656   -0.45    112.55   
    85. A(C   7,C   9,C  11)          114.16  0.001314   -0.66    113.51   
    86. A(C   7,C   9,O  10)          109.13  0.002299   -0.83    108.30   
    87. A(C  11,C   9,H  39)          108.11 -0.000979    0.57    108.68   
    88. A(O  10,C   9,H  39)          105.64 -0.003239    1.26    106.90   
    89. A(C   7,C   9,H  39)          106.22 -0.000594    0.35    106.57   
    90. A(C   9,O  10,H  40)          107.58 -0.004355    0.61    108.19   
    91. A(H  41,C  11,H  42)          106.87 -0.002434    0.68    107.55   
    92. A(O  12,C  11,H  41)          109.36 -0.001281    0.18    109.55   
    93. A(C   9,C  11,H  42)          109.45 -0.000061   -0.01    109.43   
    94. A(C   9,C  11,H  41)          111.26  0.002799   -0.48    110.78   
    95. A(C   9,C  11,O  12)          109.27 -0.000038   -0.13    109.15   
    96. A(O  12,C  11,H  42)          110.61  0.001007   -0.23    110.37   
    97. A(C  11,O  12,P  13)          119.13  0.004816   -0.52    118.60   
    98. A(O  12,P  13,O  16)          104.49 -0.002440    0.10    104.59   
    99. A(O  15,P  13,O  16)          102.86  0.002203   -0.26    102.60   
   100. A(O  14,P  13,O  16)          113.03 -0.001998    0.53    113.56   
   101. A(O  14,P  13,O  15)          113.32 -0.008056    0.99    114.31   
   102. A(O  12,P  13,O  14)          115.82  0.001288   -0.15    115.67   
   103. A(O  12,P  13,O  15)          106.10  0.010012   -1.37    104.73   
   104. A(P  13,O  15,H  43)          111.00  0.005532   -0.67    110.33   
   105. A(P  13,O  16,H  44)          110.75  0.003548   -0.43    110.32   
   106. A(O  18,C  17,O  19)          109.58 -0.001793    0.73    110.31   
   107. A(C   3,C  17,O  19)          108.67  0.005158   -1.12    107.55   
   108. A(C   3,C  17,O  18)          110.30 -0.005129    1.09    111.40   
   109. A(O  19,C  17,C  31)          109.46 -0.004492    0.57    110.02   
   110. A(O  18,C  17,C  31)          105.31  0.002524   -0.31    105.00   
   111. A(C   3,C  17,C  31)          113.44  0.003360   -0.86    112.58   
   112. A(C  17,O  18,H  45)          110.56 -0.003425    0.49    111.04   
   113. A(C  17,O  19,C  20)          115.17  0.001630   -0.68    114.49   
   114. A(O  19,C  20,C  21)          105.81  0.000965   -0.18    105.63   
   115. A(O  19,C  20,C  27)          112.59 -0.000787   -0.04    112.55   
   116. A(C  21,C  20,C  27)          112.44  0.001705   -0.54    111.90   
   117. A(C  21,C  20,H  46)          108.71 -0.001449    0.31    109.02   
   118. A(C  27,C  20,H  46)          108.69  0.001214   -0.21    108.48   
   119. A(O  19,C  20,H  46)          108.46 -0.001845    0.72    109.18   
   120. A(H  47,C  21,H  48)          105.77 -0.002064    1.19    106.96   
   121. A(C  20,C  21,H  47)          109.03 -0.004791    0.64    109.68   
   122. A(O  22,C  21,H  48)          109.58 -0.009536    1.27    110.85   
   123. A(C  20,C  21,H  48)          110.49  0.002129   -0.51    109.98   
   124. A(O  22,C  21,H  47)          107.50 -0.003118    0.20    107.70   
   125. A(C  20,C  21,O  22)          114.09  0.015940   -2.50    111.58   
   126. A(C  21,O  22,P  23)          117.92  0.002190   -0.24    117.68   
   127. A(O  25,P  23,O  26)          101.49 -0.000867    0.23    101.72   
   128. A(O  24,P  23,O  26)          115.86  0.006526   -0.71    115.15   
   129. A(O  22,P  23,O  26)          102.34 -0.008367    0.88    103.21   
   130. A(O  24,P  23,O  25)          114.34 -0.007606    0.85    115.19   
   131. A(O  22,P  23,O  25)          103.00  0.006532   -0.68    102.32   
   132. A(O  22,P  23,O  24)          117.62  0.003313   -0.48    117.14   
   133. A(P  23,O  25,H  49)          107.94  0.002623   -0.32    107.62   
   134. A(P  23,O  26,H  50)          110.48  0.001021   -0.13    110.36   
   135. A(C  29,C  27,H  51)          109.08  0.000594   -0.04    109.03   
   136. A(O  28,C  27,C  29)          108.28 -0.004912    0.76    109.04   
   137. A(C  20,C  27,H  51)          110.21 -0.001628    0.10    110.32   
   138. A(C  20,C  27,C  29)          110.96  0.002353   -0.29    110.67   
   139. A(C  20,C  27,O  28)          111.40  0.005430   -1.32    110.08   
   140. A(O  28,C  27,H  51)          106.79 -0.002116    0.86    107.65   
   141. A(C  27,O  28,H  52)          103.77 -0.001887    0.27    104.04   
   142. A(O  30,C  29,C  31)          109.98 -0.001188    0.12    110.10   
   143. A(C  27,C  29,C  31)          111.35  0.001092   -0.34    111.01   
   144. A(C  31,C  29,H  53)          111.10  0.002108   -0.57    110.53   
   145. A(O  30,C  29,H  53)          105.03 -0.004121    1.49    106.52   
   146. A(C  27,C  29,H  53)          110.65  0.000107   -0.14    110.51   
   147. A(C  27,C  29,O  30)          108.52  0.001695   -0.47    108.05   
   148. A(C  29,O  30,H  54)          104.35 -0.003817    0.54    104.89   
   149. A(C  29,C  31,O  32)          107.89 -0.003492    0.68    108.56   
   150. A(C  17,C  31,O  32)          114.18  0.002565   -0.78    113.40   
   151. A(C  17,C  31,C  29)          108.90  0.002947   -0.59    108.30   
   152. A(O  32,C  31,H  55)          106.39 -0.002025    0.83    107.22   
   153. A(C  29,C  31,H  55)          107.77 -0.001504    0.40    108.17   
   154. A(C  17,C  31,H  55)          111.47  0.001045   -0.41    111.05   
   155. A(C  31,O  32,H  56)          107.95 -0.001456    0.21    108.15   
   156. D(H  33,O   2,C   1,O   0)     -0.74 -0.000532    0.44     -0.30   
   157. D(H  33,O   2,C   1,C   3)    179.37  0.000550   -0.45    178.92   
   158. D(C  17,C   3,C   1,O   2)    129.49 -0.000876    0.29    129.77   
   159. D(O   4,C   3,C   1,O   0)   -170.13  0.000105   -0.45   -170.58   
   160. D(O   4,C   3,C   1,O   2)      9.75 -0.001093    0.52     10.27   
   161. D(C   5,C   3,C   1,O   2)   -108.74  0.000610    0.27   -108.48   
   162. D(C  17,C   3,C   1,O   0)    -50.39  0.000322   -0.69    -51.08   
   163. D(C   5,C   3,C   1,O   0)     71.38  0.001809   -0.71     70.67   
   164. D(H  34,O   4,C   3,C   1)   -163.19 -0.000236   -0.19   -163.37   
   165. D(H  34,O   4,C   3,C   5)    -47.51  0.000650   -0.64    -48.15   
   166. D(H  34,O   4,C   3,C  17)     77.14  0.000608    0.01     77.15   
   167. D(C   7,C   5,C   3,C   1)   -167.35  0.000627   -0.47   -167.82   
   168. D(O   6,C   5,C   3,C  17)   -170.53  0.002896   -1.42   -171.95   
   169. D(O   6,C   5,C   3,O   4)    -48.74  0.000638   -0.42    -49.16   
   170. D(O   6,C   5,C   3,C   1)     71.01  0.004843   -1.76     69.24   
   171. D(H  35,C   5,C   3,C  17)     73.55  0.000760   -0.91     72.64   
   172. D(C   7,C   5,C   3,C  17)    -48.88 -0.001319   -0.13    -49.01   
   173. D(H  35,C   5,C   3,C   1)    -44.92  0.002706   -1.25    -46.17   
   174. D(C   7,C   5,C   3,O   4)     72.91 -0.003578    0.87     73.78   
   175. D(H  35,C   5,C   3,O   4)   -164.66 -0.001499    0.09   -164.57   
   176. D(H  36,O   6,C   5,H  35)    160.74  0.001772   -0.78    159.96   
   177. D(H  36,O   6,C   5,C   7)    -82.19  0.000122   -0.39    -82.58   
   178. D(H  36,O   6,C   5,C   3)     42.53 -0.000483    0.07     42.60   
   179. D(H  37,C   7,C   5,H  35)    -57.72 -0.003194    1.21    -56.51   
   180. D(C   9,C   7,C   5,O   6)    -51.69 -0.000179    0.06    -51.63   
   181. D(C   9,C   7,C   5,C   3)   -173.57 -0.000663   -0.29   -173.85   
   182. D(H  37,C   7,C   5,C   3)     65.15 -0.001309    0.25     65.40   
   183. D(O   8,C   7,C   5,H  35)   -173.31  0.001580   -0.41   -173.72   
   184. D(O   8,C   7,C   5,O   6)     71.43  0.003949   -1.02     70.41   
   185. D(H  37,C   7,C   5,O   6)   -172.97 -0.000825    0.60   -172.37   
   186. D(C   9,C   7,C   5,H  35)     63.56 -0.002548    0.67     64.23   
   187. D(O   8,C   7,C   5,C   3)    -50.44  0.003465   -1.37    -51.81   
   188. D(H  38,O   8,C   7,C   9)     20.95  0.003139   -0.06     20.89   
   189. D(H  38,O   8,C   7,H  37)    135.41 -0.001438    0.86    136.28   
   190. D(H  38,O   8,C   7,C   5)   -107.14 -0.004855    1.72   -105.42   
   191. D(H  39,C   9,C   7,H  37)    -41.38  0.000409    0.05    -41.33   
   192. D(H  39,C   9,C   7,C   5)   -164.31 -0.003393    1.07   -163.24   
   193. D(C  11,C   9,C   7,H  37)     77.66 -0.000442    0.60     78.26   
   194. D(C  11,C   9,C   7,O   8)   -167.64 -0.001583    1.51   -166.13   
   195. D(C  11,C   9,C   7,C   5)    -45.27 -0.004244    1.62    -43.65   
   196. D(O  10,C   9,C   7,C   5)     82.23 -0.000421   -0.18     82.05   
   197. D(H  39,C   9,C   7,O   8)     73.32 -0.000733    0.96     74.28   
   198. D(O  10,C   9,C   7,O   8)    -40.14  0.002240   -0.29    -40.43   
   199. D(O  10,C   9,C   7,H  37)   -154.84  0.003381   -1.20   -156.04   
   200. D(H  40,O  10,C   9,C  11)    -45.14  0.002029   -0.81    -45.96   
   201. D(H  40,O  10,C   9,C   7)   -173.31 -0.002100    1.08   -172.22   
   202. D(H  40,O  10,C   9,H  39)     72.85 -0.000842    0.43     73.29   
   203. D(H  42,C  11,C   9,H  39)    -51.70  0.000563   -0.27    -51.97   
   204. D(H  42,C  11,C   9,C   7)   -169.66  0.001175   -0.70   -170.36   
   205. D(H  41,C  11,C   9,H  39)   -169.58  0.001905   -0.81   -170.39   
   206. D(H  41,C  11,C   9,O  10)    -53.03 -0.002324    0.84    -52.19   
   207. D(H  41,C  11,C   9,C   7)     72.46  0.002518   -1.23     71.23   
   208. D(O  12,C  11,C   9,H  39)     69.56  0.001740   -0.65     68.91   
   209. D(H  42,C  11,C   9,O  10)     64.85 -0.003667    1.38     66.23   
   210. D(O  12,C  11,C   9,O  10)   -173.90 -0.002490    1.01   -172.89   
   211. D(O  12,C  11,C   9,C   7)    -48.40  0.002352   -1.07    -49.48   
   212. D(P  13,O  12,C  11,H  42)    -28.30  0.000500    0.20    -28.10   
   213. D(P  13,O  12,C  11,H  41)     89.13 -0.002654    1.01     90.14   
   214. D(P  13,O  12,C  11,C   9)   -148.85 -0.000033    0.45   -148.41   
   215. D(O  16,P  13,O  12,C  11)     67.30  0.003003   -0.54     66.76   
   216. D(O  15,P  13,O  12,C  11)    -40.99 -0.002160    0.21    -40.78   
   217. D(O  14,P  13,O  12,C  11)   -167.67 -0.000614    0.13   -167.55   
   218. D(H  43,O  15,P  13,O  12)   -161.55 -0.001388    0.59   -160.96   
   219. D(H  43,O  15,P  13,O  16)     88.99 -0.003010    1.05     90.05   
   220. D(H  43,O  15,P  13,O  14)    -33.38  0.002357    0.04    -33.34   
   221. D(H  44,O  16,P  13,O  15)   -155.95  0.006380   -0.64   -156.59   
   222. D(H  44,O  16,P  13,O  14)    -33.39 -0.003055    0.68    -32.70   
   223. D(H  44,O  16,P  13,O  12)     93.39 -0.004476    0.91     94.30   
   224. D(C  31,C  17,C   3,C   5)   -161.51 -0.001448    1.29   -160.22   
   225. D(C  31,C  17,C   3,O   4)     76.24  0.002358   -0.04     76.20   
   226. D(C  31,C  17,C   3,C   1)    -45.18 -0.001652    1.32    -43.86   
   227. D(O  19,C  17,C   3,C   1)     76.81 -0.001424    0.66     77.47   
   228. D(O  18,C  17,C   3,C   5)     80.63 -0.003306    1.49     82.12   
   229. D(O  18,C  17,C   3,O   4)    -41.63  0.000500    0.17    -41.46   
   230. D(O  19,C  17,C   3,O   4)   -161.78  0.002586   -0.69   -162.47   
   231. D(O  18,C  17,C   3,C   1)   -163.04 -0.003510    1.52   -161.52   
   232. D(O  19,C  17,C   3,C   5)    -39.52 -0.001219    0.63    -38.89   
   233. D(H  45,O  18,C  17,C  31)   -149.58 -0.000554   -1.05   -150.63   
   234. D(H  45,O  18,C  17,O  19)     92.78  0.004221   -1.91     90.87   
   235. D(H  45,O  18,C  17,C   3)    -26.82  0.002162   -1.67    -28.48   
   236. D(C  20,O  19,C  17,C  31)    -60.20  0.002636   -0.99    -61.19   
   237. D(C  20,O  19,C  17,O  18)     54.82  0.002159   -0.65     54.17   
   238. D(C  20,O  19,C  17,C   3)    175.42 -0.002021    0.44    175.86   
   239. D(H  46,C  20,O  19,C  17)    -64.59 -0.000231    0.26    -64.33   
   240. D(C  27,C  20,O  19,C  17)     55.72 -0.000455    0.46     56.19   
   241. D(C  21,C  20,O  19,C  17)    178.93  0.001843   -0.35    178.57   
   242. D(H  48,C  21,C  20,C  27)   -175.84 -0.002491    1.10   -174.74   
   243. D(H  48,C  21,C  20,O  19)     60.87 -0.003210    1.60     62.47   
   244. D(H  47,C  21,C  20,H  46)   -171.29  0.003214   -0.82   -172.11   
   245. D(H  47,C  21,C  20,C  27)     68.32  0.001590   -0.43     67.89   
   246. D(H  47,C  21,C  20,O  19)    -54.97  0.000871    0.07    -54.90   
   247. D(O  22,C  21,C  20,H  46)     68.53  0.000133    0.12     68.65   
   248. D(O  22,C  21,C  20,C  27)    -51.86 -0.001491    0.51    -51.35   
   249. D(H  48,C  21,C  20,H  46)    -55.45 -0.000867    0.71    -54.74   
   250. D(O  22,C  21,C  20,O  19)   -175.15 -0.002210    1.01   -174.15   
   251. D(P  23,O  22,C  21,H  48)     52.13  0.003896   -0.15     51.98   
   252. D(P  23,O  22,C  21,H  47)    166.62 -0.005049    2.01    168.63   
   253. D(P  23,O  22,C  21,C  20)    -72.34 -0.003184    1.37    -70.97   
   254. D(O  26,P  23,O  22,C  21)   -109.47  0.001896   -2.81   -112.28   
   255. D(O  25,P  23,O  22,C  21)    145.47  0.003428   -3.11    142.36   
   256. D(O  24,P  23,O  22,C  21)     18.72  0.005805   -3.35     15.38   
   257. D(H  49,O  25,P  23,O  26)   -173.28  0.003536   -0.39   -173.67   
   258. D(H  49,O  25,P  23,O  24)     61.24  0.000417   -0.15     61.08   
   259. D(H  49,O  25,P  23,O  22)    -67.57 -0.003811    0.42    -67.15   
   260. D(H  50,O  26,P  23,O  25)     40.94  0.002923    0.14     41.08   
   261. D(H  50,O  26,P  23,O  24)    165.41 -0.003459    0.96    166.37   
   262. D(H  50,O  26,P  23,O  22)    -65.29 -0.001448    0.56    -64.73   
   263. D(H  51,C  27,C  20,H  46)   -167.72  0.000095    0.03   -167.70   
   264. D(H  51,C  27,C  20,C  21)    -47.32  0.000182   -0.07    -47.39   
   265. D(H  51,C  27,C  20,O  19)     72.09  0.002084   -0.71     71.38   
   266. D(C  29,C  27,C  20,H  46)     71.35 -0.001116    0.20     71.55   
   267. D(C  29,C  27,C  20,C  21)   -168.25 -0.001029    0.11   -168.14   
   268. D(C  29,C  27,C  20,O  19)    -48.83  0.000873   -0.53    -49.37   
   269. D(O  28,C  27,C  20,H  46)    -49.37 -0.000168    0.33    -49.04   
   270. D(O  28,C  27,C  20,C  21)     71.03 -0.000081    0.23     71.27   
   271. D(O  28,C  27,C  20,O  19)   -169.55  0.001822   -0.41   -169.96   
   272. D(H  52,O  28,C  27,H  51)    -69.62  0.001126   -0.46    -70.08   
   273. D(H  52,O  28,C  27,C  29)     47.72 -0.001803    0.33     48.04   
   274. D(H  52,O  28,C  27,C  20)    169.99  0.001301   -0.36    169.63   
   275. D(H  53,C  29,C  27,C  20)    -73.85 -0.004388    1.47    -72.39   
   276. D(C  31,C  29,C  27,H  51)    -71.37 -0.000671    0.47    -70.89   
   277. D(C  31,C  29,C  27,O  28)    172.77  0.004194   -0.93    171.84   
   278. D(C  31,C  29,C  27,C  20)     50.23 -0.000799    0.39     50.62   
   279. D(O  30,C  29,C  27,H  51)     49.82 -0.000344    0.11     49.92   
   280. D(O  30,C  29,C  27,O  28)    -66.04  0.004521   -1.30    -67.34   
   281. D(H  53,C  29,C  27,O  28)     48.69  0.000605    0.15     48.84   
   282. D(O  30,C  29,C  27,C  20)    171.41 -0.000473    0.02    171.43   
   283. D(H  53,C  29,C  27,H  51)    164.55 -0.004260    1.55    166.10   
   284. D(H  54,O  30,C  29,H  53)     73.60 -0.000086    0.22     73.82   
   285. D(H  54,O  30,C  29,C  31)    -46.01  0.000385   -0.03    -46.04   
   286. D(H  54,O  30,C  29,C  27)   -168.03 -0.001304    0.61   -167.43   
   287. D(H  55,C  31,C  29,H  53)   -170.07  0.004648   -1.80   -171.87   
   288. D(H  55,C  31,C  29,O  30)    -54.22  0.000132   -0.24    -54.46   
   289. D(H  55,C  31,C  29,C  27)     66.10  0.002179   -0.96     65.14   
   290. D(O  32,C  31,C  29,H  53)    -55.56 -0.000206   -0.30    -55.86   
   291. D(O  32,C  31,C  29,O  30)     60.29 -0.004722    1.27     61.56   
   292. D(O  32,C  31,C  29,C  27)   -179.39 -0.002675    0.54   -178.84   
   293. D(C  17,C  31,C  29,H  53)     68.87  0.002569   -1.20     67.68   
   294. D(C  17,C  31,C  29,O  30)   -175.28 -0.001947    0.37   -174.91   
   295. D(C  17,C  31,C  29,C  27)    -54.96  0.000100   -0.35    -55.31   
   296. D(H  55,C  31,C  17,O  19)    -60.35 -0.003541    1.19    -59.17   
   297. D(H  55,C  31,C  17,O  18)   -178.08 -0.000589    0.22   -177.86   
   298. D(H  55,C  31,C  17,C   3)     61.20  0.002115   -0.42     60.78   
   299. D(O  32,C  31,C  17,O  19)    179.05 -0.003524    0.97    180.02   
   300. D(O  32,C  31,C  17,O  18)     61.32 -0.000571    0.01     61.33   
   301. D(O  32,C  31,C  17,C   3)    -59.40  0.002132   -0.64    -60.04   
   302. D(C  29,C  31,C  17,O  19)     58.42 -0.002887    1.05     59.47   
   303. D(C  29,C  31,C  17,O  18)    -59.31  0.000065    0.09    -59.23   
   304. D(C  29,C  31,C  17,C   3)    179.97  0.002768   -0.56    179.41   
   305. D(H  56,O  32,C  31,H  55)   -112.31 -0.002145    0.67   -111.64   
[...]
 83:    845.77   0.002366   11.96  0.000873  ( 0.025459 -0.008540  0.012323)
 84:    879.74   0.082050  414.65  0.029105  (-0.146537 -0.076799  0.041638)
 85:    886.18   0.011852   59.89  0.004173  (-0.028580 -0.036848 -0.044708)
 86:    897.46   0.004409   22.28  0.001533  (-0.007090 -0.028529  0.025864)
 87:    911.04   0.076393  386.06  0.026167  (-0.119982 -0.032750 -0.103435)
 88:    911.52   0.063506  320.94  0.021742  (-0.122911 -0.020238 -0.078898)
 89:    921.23   0.017084   86.34  0.005787  (-0.006385 -0.061393  0.044468)
 90:    941.61   0.002788   14.09  0.000924  ( 0.024281  0.018279  0.000453)
 91:    942.75   0.004605   23.27  0.001524  (-0.026030 -0.008661  0.027780)
 92:    981.08   0.004022   20.33  0.001279  (-0.001299  0.031726 -0.016465)
 93:   1010.56   0.172794  873.23  0.053359  (-0.041838  0.217194 -0.066598)
 94:   1021.63   0.027568  139.32  0.008421  (-0.045785  0.075729 -0.024283)
 95:   1028.97   0.010548   53.30  0.003199  ( 0.044894  0.033574 -0.007495)
 96:   1032.07   0.007712   38.97  0.002332  ( 0.001357 -0.044684  0.018253)
 97:   1043.74   0.007567   38.24  0.002262  ( 0.030212 -0.026686  0.025247)
 98:   1056.09   0.002836   14.33  0.000838  ( 0.002408 -0.019968 -0.020819)
 99:   1063.50   0.006358   32.13  0.001866  (-0.028981  0.031465  0.005967)
100:   1071.88   0.024980  126.24  0.007273  (-0.019313  0.006262 -0.082828)
101:   1073.52   0.005402   27.30  0.001570  ( 0.005054 -0.017622  0.035132)
102:   1085.35   0.016692   84.35  0.004799  ( 0.042553  0.014688  0.052657)
103:   1092.21   0.029802  150.61  0.008515  ( 0.022466 -0.089388  0.004482)
104:   1095.93   0.037439  189.20  0.010661  ( 0.058611 -0.081991  0.022426)
105:   1102.16   0.019949  100.82  0.005648  (-0.027746 -0.054586  0.043577)
106:   1114.30   0.009634   48.69  0.002698  ( 0.043966 -0.024818  0.012209)
107:   1123.73   0.003227   16.31  0.000896  (-0.025349  0.013274  0.008795)
108:   1124.58   0.002313   11.69  0.000642  (-0.023723 -0.005373  0.007085)
109:   1131.33   0.034513  174.41  0.009520  ( 0.058919  0.007362 -0.077423)
110:   1138.25   0.031767  160.54  0.008709  (-0.070790  0.034148 -0.050317)
111:   1141.91   0.055846  282.22  0.015262  ( 0.057317 -0.108072 -0.017223)
112:   1148.14   0.046776  236.39  0.012714  ( 0.022529 -0.110356 -0.005275)
113:   1152.46   0.007705   38.94  0.002086  ( 0.021522 -0.035826 -0.018428)
114:   1156.19   0.010087   50.98  0.002723  ( 0.021012 -0.024785 -0.040827)
115:   1165.32   0.016173   81.73  0.004331  (-0.000968 -0.035753  0.055244)
116:   1177.24   0.045115  227.99  0.011959  ( 0.073349 -0.079388 -0.016631)
117:   1188.77   0.006989   35.32  0.001835  ( 0.021816 -0.018663 -0.031788)
118:   1192.46   0.005157   26.06  0.001350  (-0.026341  0.022286  0.012611)
119:   1199.76   0.023726  119.90  0.006171  ( 0.074399 -0.024855 -0.004285)
120:   1209.59   0.010866   54.91  0.002803  ( 0.027973  0.005639 -0.044598)
121:   1215.12   0.004430   22.39  0.001138  ( 0.030684  0.002714  0.013742)
122:   1225.62   0.006642   33.57  0.001691  (-0.007981 -0.031065 -0.025738)
123:   1229.55   0.004602   23.26  0.001168  ( 0.005225 -0.028691  0.017817)
124:   1240.47   0.035128  177.52  0.008837  ( 0.037201 -0.084540  0.017496)
125:   1247.11   0.084495  427.00  0.021143  ( 0.056758 -0.122790 -0.053331)
126:   1252.78   0.067661  341.93  0.016854  (-0.117475  0.029633  0.046642)
127:   1267.38   0.001883    9.52  0.000464  ( 0.011613  0.010152 -0.015023)
128:   1268.42   0.007415   37.47  0.001824  (-0.040721  0.012355 -0.003659)
129:   1278.11   0.019793  100.03  0.004833  ( 0.015342 -0.054904 -0.039785)
130:   1283.87   0.019651   99.31  0.004777  (-0.038169  0.015038 -0.055619)
131:   1290.89   0.006084   30.74  0.001471  (-0.015623 -0.033861  0.008948)
132:   1301.25   0.005777   29.20  0.001386  ( 0.002523 -0.026581 -0.025934)
133:   1307.20   0.006697   33.84  0.001599  (-0.007595  0.005143  0.038917)
134:   1313.31   0.005092   25.73  0.001210  (-0.000289  0.016563 -0.030585)
135:   1325.26   0.008235   41.62  0.001939  ( 0.022094 -0.038084  0.000801)
136:   1327.06   0.009979   50.43  0.002347  ( 0.018129  0.023006  0.038583)
137:   1332.25   0.003995   20.19  0.000936  (-0.010374 -0.028669 -0.002494)
138:   1336.35   0.014658   74.08  0.003423  (-0.042811  0.010028 -0.038596)
139:   1343.63   0.018361   92.79  0.004264  ( 0.022517  0.061118 -0.004693)
140:   1346.34   0.001204    6.08  0.000279  (-0.010400 -0.010181  0.008201)
141:   1351.03   0.013693   69.20  0.003163  ( 0.032635  0.018932  0.041705)
142:   1351.72   0.006321   31.95  0.001459  ( 0.013174 -0.030882  0.018224)
143:   1359.41   0.012569   63.52  0.002885  (-0.002889 -0.007155 -0.053158)
144:   1455.53   0.000386    1.95  0.000083  (-0.008956  0.000785 -0.001386)
145:   1462.59   0.000636    3.22  0.000136  ( 0.006975  0.003304  0.008729)
146:   1796.28   0.078907  398.76  0.013708  ( 0.084606 -0.055356 -0.059042)
147:   2586.15   0.368141  1860.43  0.044422  ( 0.196787 -0.047183  0.058918)
148:   2859.80   0.005872   29.67  0.000641  (-0.004304 -0.004731  0.024491)
149:   2865.16   0.005310   26.83  0.000578  (-0.010711 -0.000508  0.021526)
150:   2882.12   0.014244   71.98  0.001542  ( 0.024110  0.002331 -0.030912)
151:   2918.18   0.006072   30.69  0.000649  (-0.025416 -0.001626  0.000833)
152:   2928.10   0.000274    1.38  0.000029  (-0.003700 -0.002284 -0.003208)
153:   2961.61   0.004288   21.67  0.000452  ( 0.020307 -0.000670 -0.006245)
154:   2968.52   0.000127    0.64  0.000013  (-0.003006  0.001800 -0.001032)
155:   2969.32   0.000806    4.07  0.000085  ( 0.002034 -0.001140  0.008901)
156:   2982.79   0.001668    8.43  0.000175  (-0.013109  0.001093  0.001224)
157:   2990.86   0.001947    9.84  0.000203  (-0.010652 -0.000067  0.009469)
158:   2995.93   0.000672    3.40  0.000070  ( 0.007625 -0.003443 -0.000036)
159:   3352.12   0.072065  364.19  0.006709  ( 0.073112 -0.006506  0.036347)
160:   3359.00   0.023984  121.20  0.002228  (-0.034235 -0.021217  0.024617)
161:   3424.37   0.016750   84.65  0.001526  ( 0.004969  0.027799 -0.026999)
162:   3438.52   0.011243   56.82  0.001020  (-0.015197 -0.014759 -0.023907)
163:   3463.23   0.029762  150.41  0.002682  (-0.050824  0.006299 -0.007688)
164:   3470.40   0.008751   44.22  0.000787  ( 0.011312  0.025638 -0.001293)
165:   3480.24   0.033875  171.19  0.003038  ( 0.032885  0.043483  0.008085)
166:   3489.49   0.007093   35.84  0.000634  ( 0.015055 -0.009715 -0.017700)
167:   3493.95   0.008802   44.48  0.000786  ( 0.003685 -0.027578 -0.003469)
168:   3497.76   0.004013   20.28  0.000358  (-0.013207 -0.006166 -0.012065)
169:   3573.34   0.004266   21.56  0.000373  ( 0.010434  0.015044  0.006115)
170:   3631.93   0.013852   70.00  0.001190  ( 0.004682  0.030194 -0.016017)

* The epsilon (eps) is given for a Dirac delta lineshape.
** The dipole moment derivative (T) already includes vibrational overlap.

The first frequency considered to be a vibration is 6
The total number of vibrations considered is 165


--------------------------
THERMOCHEMISTRY AT 298.15K
--------------------------

Temperature         ... 298.15 K
Pressure            ... 1.00 atm
Total Mass          ... 534.25 AMU

Throughout the following assumptions are being made:
  (1) The electronic state is orbitally nondegenerate
  (2) There are no thermally accessible electronically excited states
  (3) Hindered rotations indicated by low frequency modes are not
      treated as such but are treated as vibrations and this may
      cause some error
  (4) All equations used are the standard statistical mechanics
      equations for an ideal gas
  (5) All vibrations are strictly harmonic

freq.      23.31  E(vib)   ...       0.56 
freq.      31.10  E(vib)   ...       0.55 
freq.      46.37  E(vib)   ...       0.53 
freq.      56.14  E(vib)   ...       0.52 
freq.      57.84  E(vib)   ...       0.51 
freq.      69.77  E(vib)   ...       0.50 
freq.      74.77  E(vib)   ...       0.49 
freq.      88.44  E(vib)   ...       0.48 
freq.      90.14  E(vib)   ...       0.47 
freq.      98.65  E(vib)   ...       0.46 
freq.     101.47  E(vib)   ...       0.46 
freq.     106.05  E(vib)   ...       0.45 
freq.     110.34  E(vib)   ...       0.45 
freq.     117.73  E(vib)   ...       0.44 
freq.     119.01  E(vib)   ...       0.44 
freq.     131.00  E(vib)   ...       0.42 
freq.     144.96  E(vib)   ...       0.41 
freq.     167.73  E(vib)   ...       0.38 
freq.     171.81  E(vib)   ...       0.38 
freq.     178.29  E(vib)   ...       0.37 
freq.     184.25  E(vib)   ...       0.37 
freq.     202.23  E(vib)   ...       0.35 
freq.     208.24  E(vib)   ...       0.34 
freq.     220.10  E(vib)   ...       0.33 
freq.     222.65  E(vib)   ...       0.33 
freq.     226.05  E(vib)   ...       0.33 
freq.     230.57  E(vib)   ...       0.32 
freq.     237.41  E(vib)   ...       0.32 
freq.     257.11  E(vib)   ...       0.30 
freq.     257.96  E(vib)   ...       0.30 
freq.     268.62  E(vib)   ...       0.29 
freq.     276.16  E(vib)   ...       0.28 
freq.     284.77  E(vib)   ...       0.28 
freq.     290.02  E(vib)   ...       0.27 
freq.     306.78  E(vib)   ...       0.26 
freq.     322.52  E(vib)   ...       0.25 
freq.     326.40  E(vib)   ...       0.24 
freq.     336.22  E(vib)   ...       0.24 
freq.     340.19  E(vib)   ...       0.23 
freq.     345.55  E(vib)   ...       0.23 
freq.     351.72  E(vib)   ...       0.23 
freq.     357.37  E(vib)   ...       0.22 
freq.     361.28  E(vib)   ...       0.22 
freq.     369.49  E(vib)   ...       0.21 
freq.     373.52  E(vib)   ...       0.21 
freq.     387.66  E(vib)   ...       0.20 
freq.     394.38  E(vib)   ...       0.20 
freq.     411.19  E(vib)   ...       0.19 
freq.     414.78  E(vib)   ...       0.19 
freq.     417.18  E(vib)   ...       0.18 
freq.     440.89  E(vib)   ...       0.17 
freq.     441.43  E(vib)   ...       0.17 
freq.     444.94  E(vib)   ...       0.17 
freq.     457.07  E(vib)   ...       0.16 
freq.     462.52  E(vib)   ...       0.16 
freq.     484.74  E(vib)   ...       0.15 
freq.     489.58  E(vib)   ...       0.15 
freq.     497.24  E(vib)   ...       0.14 
freq.     501.74  E(vib)   ...       0.14 
freq.     520.22  E(vib)   ...       0.13 
freq.     535.49  E(vib)   ...       0.12 
freq.     553.76  E(vib)   ...       0.12 
freq.     559.82  E(vib)   ...       0.12 
freq.     577.92  E(vib)   ...       0.11 
freq.     585.19  E(vib)   ...       0.11 
freq.     590.46  E(vib)   ...       0.10 
freq.     611.89  E(vib)   ...       0.10 
freq.     635.63  E(vib)   ...       0.09 
freq.     669.57  E(vib)   ...       0.08 
freq.     691.49  E(vib)   ...       0.07 
freq.     732.89  E(vib)   ...       0.06 
freq.     743.82  E(vib)   ...       0.06 
freq.     764.68  E(vib)   ...       0.06 
freq.     769.91  E(vib)   ...       0.05 
freq.     794.81  E(vib)   ...       0.05 
freq.     812.21  E(vib)   ...       0.05 
freq.     832.16  E(vib)   ...       0.04 
freq.     845.77  E(vib)   ...       0.04 
freq.     879.74  E(vib)   ...       0.04 
freq.     886.18  E(vib)   ...       0.04 
freq.     897.46  E(vib)   ...       0.03 
freq.     911.04  E(vib)   ...       0.03 
freq.     911.52  E(vib)   ...       0.03 
freq.     921.23  E(vib)   ...       0.03 
freq.     941.61  E(vib)   ...       0.03 
freq.     942.75  E(vib)   ...       0.03 
freq.     981.08  E(vib)   ...       0.02 
freq.    1010.56  E(vib)   ...       0.02 
freq.    1021.63  E(vib)   ...       0.02 
freq.    1028.97  E(vib)   ...       0.02 
freq.    1032.07  E(vib)   ...       0.02 
freq.    1043.74  E(vib)   ...       0.02 
freq.    1056.09  E(vib)   ...       0.02 
freq.    1063.50  E(vib)   ...       0.02 
freq.    1071.88  E(vib)   ...       0.02 
freq.    1073.52  E(vib)   ...       0.02 
freq.    1085.35  E(vib)   ...       0.02 
freq.    1092.21  E(vib)   ...       0.02 
freq.    1095.93  E(vib)   ...       0.02 
freq.    1102.16  E(vib)   ...       0.02 
freq.    1114.30  E(vib)   ...       0.01 
freq.    1123.73  E(vib)   ...       0.01 
freq.    1124.58  E(vib)   ...       0.01 
freq.    1131.33  E(vib)   ...       0.01 
freq.    1138.25  E(vib)   ...       0.01 
freq.    1141.91  E(vib)   ...       0.01 
freq.    1148.14  E(vib)   ...       0.01 
freq.    1152.46  E(vib)   ...       0.01 
freq.    1156.19  E(vib)   ...       0.01 
freq.    1165.32  E(vib)   ...       0.01 
freq.    1177.24  E(vib)   ...       0.01 
freq.    1188.77  E(vib)   ...       0.01 
freq.    1192.46  E(vib)   ...       0.01 
freq.    1199.76  E(vib)   ...       0.01 
freq.    1209.59  E(vib)   ...       0.01 
freq.    1215.12  E(vib)   ...       0.01 
freq.    1225.62  E(vib)   ...       0.01 
freq.    1229.55  E(vib)   ...       0.01 
freq.    1240.47  E(vib)   ...       0.01 
freq.    1247.11  E(vib)   ...       0.01 
freq.    1252.78  E(vib)   ...       0.01 
freq.    1267.38  E(vib)   ...       0.01 
freq.    1268.42  E(vib)   ...       0.01 
freq.    1278.11  E(vib)   ...       0.01 
freq.    1283.87  E(vib)   ...       0.01 
freq.    1290.89  E(vib)   ...       0.01 
freq.    1301.25  E(vib)   ...       0.01 
freq.    1307.20  E(vib)   ...       0.01 
freq.    1313.31  E(vib)   ...       0.01 
freq.    1325.26  E(vib)   ...       0.01 
freq.    1327.06  E(vib)   ...       0.01 
freq.    1332.25  E(vib)   ...       0.01 
freq.    1336.35  E(vib)   ...       0.01 
freq.    1343.63  E(vib)   ...       0.01 
freq.    1346.34  E(vib)   ...       0.01 
freq.    1351.03  E(vib)   ...       0.01 
freq.    1351.72  E(vib)   ...       0.01 
freq.    1359.41  E(vib)   ...       0.01 
freq.    1455.53  E(vib)   ...       0.00 
freq.    1462.59  E(vib)   ...       0.00 
freq.    1796.28  E(vib)   ...       0.00 
freq.    2586.15  E(vib)   ...       0.00 
freq.    2859.80  E(vib)   ...       0.00 
freq.    2865.16  E(vib)   ...       0.00 
freq.    2882.12  E(vib)   ...       0.00 
freq.    2918.18  E(vib)   ...       0.00 
freq.    2928.10  E(vib)   ...       0.00 
freq.    2961.61  E(vib)   ...       0.00 
freq.    2968.52  E(vib)   ...       0.00 
freq.    2969.32  E(vib)   ...       0.00 
freq.    2982.79  E(vib)   ...       0.00 
freq.    2990.86  E(vib)   ...       0.00 
freq.    2995.93  E(vib)   ...       0.00 
freq.    3352.12  E(vib)   ...       0.00 
freq.    3359.00  E(vib)   ...       0.00 
freq.    3424.37  E(vib)   ...       0.00 
freq.    3438.52  E(vib)   ...       0.00 
freq.    3463.23  E(vib)   ...       0.00 
freq.    3470.40  E(vib)   ...       0.00 
freq.    3480.24  E(vib)   ...       0.00 
freq.    3489.49  E(vib)   ...       0.00 
freq.    3493.95  E(vib)   ...       0.00 
freq.    3497.76  E(vib)   ...       0.00 
freq.    3573.34  E(vib)   ...       0.00 
freq.    3631.93  E(vib)   ...       0.00 

------------
INNER ENERGY
------------

The inner energy is: U= E(el) + E(ZPE) + E(vib) + E(rot) + E(trans)
    E(el)   - is the total energy from the electronic structure calculation
              = E(kin-el) + E(nuc-el) + E(el-el) + E(nuc-nuc)
    E(ZPE)  - the the zero temperature vibrational energy from the frequency calculation
    E(vib)  - the the finite temperature correction to E(ZPE) due to population
              of excited vibrational states
    E(rot)  - is the rotational thermal energy
    E(trans)- is the translational thermal energy

Summary of contributions to the inner energy U:
Electronic energy                ...   -120.60673374 Eh
Zero point energy                ...      0.40715600 Eh     255.49 kcal/mol
Thermal vibrational correction   ...      0.03352440 Eh      21.04 kcal/mol
Thermal rotational correction    ...      0.00141627 Eh       0.89 kcal/mol
Thermal translational correction ...      0.00141627 Eh       0.89 kcal/mol
-----------------------------------------------------------------------
Total thermal energy                   -120.16322080 Eh


Summary of corrections to the electronic energy:
(perhaps to be used in another calculation)
Total thermal correction                  0.03635694 Eh      22.81 kcal/mol
Non-thermal (ZPE) correction              0.40715600 Eh     255.49 kcal/mol
-----------------------------------------------------------------------
Total correction                          0.44351295 Eh     278.31 kcal/mol


--------
ENTHALPY
--------

The enthalpy is H = U + kB*T
                kB is Boltzmann's constant
Total free energy                 ...   -120.16322080 Eh 
Thermal Enthalpy correction       ...      0.00094421 Eh       0.59 kcal/mol
-----------------------------------------------------------------------
Total Enthalpy                    ...   -120.16227659 Eh


Note: Only C1 symmetry has been detected, increase convergence thresholds 
      if your molecule has a higher symmetry. Symmetry factor of 1.0 is   
      used for the rotational entropy correction. 
 

Note: Rotational entropy computed according to Herzberg 
Infrared and Raman Spectra, Chapter V,1, Van Nostrand Reinhold, 1945 
Point Group:  C1, Symmetry Number:   1  
Rotational constants in cm-1:     0.005000     0.003931     0.002519 

Vibrational entropy computed according to the QRRHO of S. Grimme
Chem.Eur.J. 2012 18 9955


-------
ENTROPY
-------

The entropy contributions are T*S = T*(S(el)+S(vib)+S(rot)+S(trans))
     S(el)   - electronic entropy
     S(vib)  - vibrational entropy
     S(rot)  - rotational entropy
     S(trans)- translational entropy
The entropies will be listed as multiplied by the temperature to get
units of energy

Electronic entropy                ...      0.00000000 Eh      0.00 kcal/mol
Vibrational entropy               ...      0.05895011 Eh     36.99 kcal/mol
Rotational entropy                ...      0.01745196 Eh     10.95 kcal/mol
Translational entropy             ...      0.02124449 Eh     13.33 kcal/mol
-----------------------------------------------------------------------
Final entropy term                ...      0.09764656 Eh     61.27 kcal/mol

In case the symmetry of your molecule has not been determined correctly
or in case you have a reason to use a different symmetry number we print 
out the resulting rotational entropy values for sn=1,12 :
 --------------------------------------------------------
|  sn= 1 | S(rot)=       0.01745196 Eh     10.95 kcal/mol|
|  sn= 2 | S(rot)=       0.01679750 Eh     10.54 kcal/mol|
|  sn= 3 | S(rot)=       0.01641467 Eh     10.30 kcal/mol|
|  sn= 4 | S(rot)=       0.01614304 Eh     10.13 kcal/mol|
|  sn= 5 | S(rot)=       0.01593236 Eh     10.00 kcal/mol|
|  sn= 6 | S(rot)=       0.01576021 Eh      9.89 kcal/mol|
|  sn= 7 | S(rot)=       0.01561467 Eh      9.80 kcal/mol|
|  sn= 8 | S(rot)=       0.01548859 Eh      9.72 kcal/mol|
|  sn= 9 | S(rot)=       0.01537738 Eh      9.65 kcal/mol|
|  sn=10 | S(rot)=       0.01527790 Eh      9.59 kcal/mol|
|  sn=11 | S(rot)=       0.01518791 Eh      9.53 kcal/mol|
|  sn=12 | S(rot)=       0.01510575 Eh      9.48 kcal/mol|
 --------------------------------------------------------


-------------------
GIBBS FREE ENERGY
-------------------

The Gibbs free energy is G = H - T*S

Total enthalpy                    ...   -120.16227659 Eh 
Total entropy correction          ...     -0.09764656 Eh    -61.27 kcal/mol
-----------------------------------------------------------------------
Final Gibbs free energy         ...   -120.25992315 Eh

For completeness - the Gibbs free energy minus the electronic energy
G-E(el)                           ...      0.34681060 Eh    217.63 kcal/mol



Timings for individual modules:

Sum of individual times         ...      905.522 sec (=  15.092 min)
Geometry relaxation             ...       17.819 sec (=   0.297 min)   2.0 %
Numerical frequency calculation ...      875.594 sec (=  14.593 min)  96.7 %
XTB module                      ...       12.109 sec (=   0.202 min)   1.3 %
                             ****ORCA TERMINATED NORMALLY****
TOTAL RUN TIME: 0 days 0 hours 15 minutes 18 seconds 345 msec
