
                                 *****************
                                 * O   R   C   A *
                                 *****************

                                            #,                                       
                                            ###                                      
                                            ####                                     
                                            #####                                    
                                            ######                                   
                                           ########,                                 
                                     ,,################,,,,,                         
                               ,,#################################,,                 
                          ,,##########################################,,             
                       ,#########################################, ''#####,          
                    ,#############################################,,   '####,        
                  ,##################################################,,,,####,       
                ,###########''''           ''''###############################       
              ,#####''   ,,,,##########,,,,          '''####'''          '####       
            ,##' ,,,,###########################,,,                        '##       
           ' ,,###''''                  '''############,,,                           
         ,,##''                                '''############,,,,        ,,,,,,###''
      ,#''                                            '''#######################'''  
     '                                                          ''''####''''         
             ,#######,   #######,   ,#######,      ##                                
            ,#'     '#,  ##    ##  ,#'     '#,    #''#        ######   ,####,        
            ##       ##  ##   ,#'  ##            #'  '#       #        #'  '#        
            ##       ##  #######   ##           ,######,      #####,   #    #        
            '#,     ,#'  ##    ##  '#,     ,#' ,#      #,         ##   #,  ,#        
             '#######'   ##     ##  '#######'  #'      '#     #####' # '####'        



                  #######################################################
                  #                        -***-                        #
                  #          Department of theory and spectroscopy      #
                  #    Directorship and core code : Frank Neese         #
                  #        Max Planck Institute fuer Kohlenforschung    #
                  #                Kaiser Wilhelm Platz 1               #
                  #                 D-45470 Muelheim/Ruhr               #
                  #                      Germany                        #
                  #                                                     #
                  #                  All rights reserved                #
                  #                        -***-                        #
                  #######################################################


                         Program Version 5.0.3 -  RELEASE  -


 With contributions from (in alphabetic order):
   Daniel Aravena         : Magnetic Suceptibility
   Michael Atanasov       : Ab Initio Ligand Field Theory (pilot matlab implementation)
   Alexander A. Auer      : GIAO ZORA, VPT2 properties, NMR spectrum
   Ute Becker             : Parallelization
   Giovanni Bistoni       : ED, misc. LED, open-shell LED, HFLD
   Martin Brehm           : Molecular dynamics
   Dmytro Bykov           : SCF Hessian
   Vijay G. Chilkuri      : MRCI spin determinant printing, contributions to CSF-ICE
   Dipayan Datta          : RHF DLPNO-CCSD density
   Achintya Kumar Dutta   : EOM-CC, STEOM-CC
   Dmitry Ganyushin       : Spin-Orbit,Spin-Spin,Magnetic field MRCI
   Miquel Garcia          : C-PCM and meta-GGA Hessian, CC/C-PCM, Gaussian charge scheme
   Yang Guo               : DLPNO-NEVPT2, F12-NEVPT2, CIM, IAO-localization
   Andreas Hansen         : Spin unrestricted coupled pair/coupled cluster methods
   Benjamin Helmich-Paris : MC-RPA, TRAH-SCF, COSX integrals
   Lee Huntington         : MR-EOM, pCC
   Robert Izsak           : Overlap fitted RIJCOSX, COSX-SCS-MP3, EOM
   Marcus Kettner         : VPT2
   Christian Kollmar      : KDIIS, OOCD, Brueckner-CCSD(T), CCSD density, CASPT2, CASPT2-K
   Simone Kossmann        : Meta GGA functionals, TD-DFT gradient, OOMP2, MP2 Hessian
   Martin Krupicka        : Initial AUTO-CI
   Lucas Lang             : DCDCAS
   Marvin Lechner         : AUTO-CI (C++ implementation), FIC-MRCC
   Dagmar Lenk            : GEPOL surface, SMD
   Dimitrios Liakos       : Extrapolation schemes; Compound Job, initial MDCI parallelization
   Dimitrios Manganas     : Further ROCIS development; embedding schemes
   Dimitrios Pantazis     : SARC Basis sets
   Anastasios Papadopoulos: AUTO-CI, single reference methods and gradients
   Taras Petrenko         : DFT Hessian,TD-DFT gradient, ASA, ECA, R-Raman, ABS, FL, XAS/XES, NRVS
   Peter Pinski           : DLPNO-MP2, DLPNO-MP2 Gradient
   Christoph Reimann      : Effective Core Potentials
   Marius Retegan         : Local ZFS, SOC
   Christoph Riplinger    : Optimizer, TS searches, QM/MM, DLPNO-CCSD(T), (RO)-DLPNO pert. Triples
   Tobias Risthaus        : Range-separated hybrids, TD-DFT gradient, RPA, STAB
   Michael Roemelt        : Original ROCIS implementation
   Masaaki Saitow         : Open-shell DLPNO-CCSD energy and density
   Barbara Sandhoefer     : DKH picture change effects
   Avijit Sen             : IP-ROCIS
   Kantharuban Sivalingam : CASSCF convergence, NEVPT2, FIC-MRCI
   Bernardo de Souza      : ESD, SOC TD-DFT
   Georgi Stoychev        : AutoAux, RI-MP2 NMR, DLPNO-MP2 response
   Willem Van den Heuvel  : Paramagnetic NMR
   Boris Wezisla          : Elementary symmetry handling
   Frank Wennmohs         : Technical directorship


 We gratefully acknowledge several colleagues who have allowed us to
 interface, adapt or use parts of their codes:
   Stefan Grimme, W. Hujo, H. Kruse, P. Pracht,  : VdW corrections, initial TS optimization,
                  C. Bannwarth, S. Ehlert          DFT functionals, gCP, sTDA/sTD-DF
   Ed Valeev, F. Pavosevic, A. Kumar             : LibInt (2-el integral package), F12 methods
   Garnet Chan, S. Sharma, J. Yang, R. Olivares  : DMRG
   Ulf Ekstrom                                   : XCFun DFT Library
   Mihaly Kallay                                 : mrcc  (arbitrary order and MRCC methods)
   Jiri Pittner, Ondrej Demel                    : Mk-CCSD
   Frank Weinhold                                : gennbo (NPA and NBO analysis)
   Christopher J. Cramer and Donald G. Truhlar   : smd solvation model
   Lars Goerigk                                  : TD-DFT with DH, B97 family of functionals
   V. Asgeirsson, H. Jonsson                     : NEB implementation
   FAccTs GmbH                                   : IRC, NEB, NEB-TS, DLPNO-Multilevel, CI-OPT
                                                   MM, QMMM, 2- and 3-layer-ONIOM, Crystal-QMMM,
                                                   LR-CPCM, SF, NACMEs, symmetry and pop. for TD-DFT,
                                                   nearIR, NL-DFT gradient (VV10), updates on ESD,
                                                   ML-optimized integration grids
   S Lehtola, MJT Oliveira, MAL Marques          : LibXC Library
   Liviu Ungur et al                             : ANISO software


 Your calculation uses the libint2 library for the computation of 2-el integrals
 For citations please refer to: http://libint.valeyev.net

 Your ORCA version has been built with support for libXC version: 5.1.0
 For citations please refer to: https://tddft.org/programs/libxc/

 This ORCA versions uses:
   CBLAS   interface :  Fast vector & matrix operations
   LAPACKE interface :  Fast linear algebra routines
   SCALAPACK package :  Parallel linear algebra routines
   Shared memory     :  Shared parallel matrices
   BLAS/LAPACK       :  OpenBLAS 0.3.15  USE64BITINT DYNAMIC_ARCH NO_AFFINITY Haswell SINGLE_THREADED
        Core in use  :  Haswell
   Copyright (c) 2011-2014, The OpenBLAS Project


Your calculation utilizes the semiempirical GFN2-xTB method
Please cite in your paper:
C. Bannwarth, Ehlert S., S. Grimme,  J. Chem. Theory Comput., 15, (2019), 1652.
   

================================================================================

================================================================================
                                        WARNINGS
                       Please study these warnings very carefully!
================================================================================


WARNING: Geometry Optimization
  ===> : Switching off AutoStart
         For restart on a previous wavefunction, please use MOREAD

WARNING: Found dipole moment calculation with XTB calculation
  ===> : Switching off dipole moment calculation


WARNING: TRAH-SCF for XTB is not implemented!
  ===> : Turning TRAH off!

================================================================================
                                       INPUT FILE
================================================================================
NAME = /tmp/16.inp
|  1> ! XTB2 opt numfreq
|  2> * XYZ 0 1
|  3> O 2.9777 -0.4624 -2.1009
|  4> C 2.5655 0.1315 -1.1075
|  5> O 3.3753 1.0037 -0.4442
|  6> C 3.0262 1.3965 0.9059
|  7> C 4.2952 1.9419 1.5739
|  8> O 4.7026 3.1173 0.8855
|  9> P 6.1560 3.1596 0.2113
| 10> O 6.5119 4.4041 -0.5281
| 11> O 6.2458 1.8370 -0.6799
| 12> O 7.1646 2.8336 1.4090
| 13> C 2.4938 0.1772 1.6578
| 14> O 2.1453 0.4677 3.0131
| 15> C 1.2853 -0.4631 0.9412
| 16> O 1.3775 -1.8874 1.0992
| 17> C 1.1530 -0.0310 -0.5344
| 18> O 0.5345 1.2830 -0.5494
| 19> C 0.2771 -0.9606 -1.4508
| 20> O 0.9305 -2.1530 -1.8700
| 21> O -0.0035 -0.2219 -2.6427
| 22> C -1.0785 -1.3774 -0.7568
| 23> O -0.9132 -2.5683 0.0341
| 24> C -2.2315 -1.6558 -1.7497
| 25> O -1.7542 -2.4401 -2.8680
| 26> C -3.4327 -2.4198 -1.1522
| 27> O -4.4597 -2.5134 -2.1647
| 28> C -4.0556 -1.8096 0.1142
| 29> O -5.0934 -2.7005 0.5689
| 30> C -4.6797 -0.4287 -0.1185
| 31> O -5.0016 0.1557 1.1401
| 32> P -4.3930 1.6036 1.4481
| 33> O -2.9062 1.7299 1.3980
| 34> O -5.1954 2.5567 0.4490
| 35> O -5.0577 1.9694 2.8493
| 36> H 2.2953 2.2122 0.8596
| 37> H 4.1061 2.2174 2.6173
| 38> H 5.0917 1.1871 1.5569
| 39> H 5.7949 1.9499 -1.5408
| 40> H 8.0787 3.0634 1.1514
| 41> H 3.2946 -0.5734 1.7095
| 42> H 1.4858 1.1865 3.0192
| 43> H 0.3693 -0.1660 1.4704
| 44> H 1.4473 -2.0558 2.0624
| 45> H 0.2923 1.4415 -1.4892
| 46> H 1.8016 -1.8843 -2.2310
| 47> H -0.4532 -0.8668 -3.2283
| 48> H -1.4130 -0.5791 -0.0841
| 49> H 0.0494 -2.6580 0.2429
| 50> H -2.5742 -0.7138 -2.1921
| 51> H -1.1776 -3.1396 -2.4850
| 52> H -3.1513 -3.4601 -0.9507
| 53> H -3.9918 -2.8083 -2.9754
| 54> H -3.3226 -1.7590 0.9261
| 55> H -5.6387 -2.8834 -0.2210
| 56> H -5.6140 -0.5072 -0.6847
| 57> H -3.9997 0.2281 -0.6670
| 58> H -5.0085 3.5056 0.5925
| 59> H -4.7243 1.3876 3.5604
| 60> *
| 61> 
| 62>                          ****END OF INPUT****
================================================================================

                       *****************************
                       * Geometry Optimization Run *
                       *****************************

Geometry optimization settings:
Update method            Update   .... BFGS
Choice of coordinates    CoordSys .... Z-matrix Internals
Initial Hessian          InHess   .... Almoef's Model

Convergence Tolerances:
Energy Change            TolE     ....  5.0000e-06 Eh
Max. Gradient            TolMAXG  ....  3.0000e-04 Eh/bohr
RMS Gradient             TolRMSG  ....  1.0000e-04 Eh/bohr
Max. Displacement        TolMAXD  ....  4.0000e-03 bohr
RMS Displacement         TolRMSD  ....  2.0000e-03 bohr
Strict Convergence                ....  False
------------------------------------------------------------------------------
                        ORCA OPTIMIZATION COORDINATE SETUP
------------------------------------------------------------------------------

The optimization will be done in new redundant internal coordinates
Making redundant internal coordinates   ...  (new redundants) done
Evaluating the initial hessian          ...  (Almloef) done
Evaluating the coordinates              ...  done
Calculating the B-matrix                .... done
Calculating the G-matrix                .... done
Diagonalizing the G-matrix              .... done
Small eigenvalue found = 1.641e-03
Small eigenvalue found = 2.796e-03
Small eigenvalue found = 4.191e-03
Small eigenvalue found = 7.411e-03
Small eigenvalue found = 1.268e-02
Small eigenvalue found = 1.532e-02
Small eigenvalue found = 1.839e-02
Small eigenvalue found = 2.646e-02
Small eigenvalue found = 2.791e-02
The first mode is                       ....  142
The number of degrees of freedom        ....  165

    -----------------------------------------------------------------
                    Redundant Internal Coordinates


    -----------------------------------------------------------------
         Definition                    Initial Value    Approx d2E/dq
    -----------------------------------------------------------------
      1. B(C   1,O   0)                  1.2286         1.012445   
      2. B(O   2,C   1)                  1.3625         0.619027   
      3. B(C   3,O   2)                  1.4488         0.450934   
      4. B(C   4,C   3)                  1.5343         0.367733   
      5. B(O   5,C   4)                  1.4218         0.497950   
      6. B(P   6,O   5)                  1.6027         0.860975   
      7. B(O   7,P   6)                  1.4907         1.299345   
      8. B(O   8,P   6)                  1.5974         0.878078   
      9. B(O   9,P   6)                  1.5994         0.871581   
     10. B(C  10,C   3)                  1.5282         0.376008   
     11. B(O  11,C  10)                  1.4292         0.484503   
     12. B(C  12,C  10)                  1.5440         0.354832   
     13. B(O  13,C  12)                  1.4360         0.472591   
     14. B(C  14,C  12)                  1.5432         0.355831   
     15. B(C  14,C   1)                  1.5330         0.369517   
     16. B(O  15,C  14)                  1.4524         0.445017   
     17. B(C  16,C  14)                  1.5720         0.320176   
     18. B(O  17,C  16)                  1.4228         0.495997   
     19. B(O  18,C  16)                  1.4300         0.483037   
     20. B(C  19,C  16)                  1.5789         0.312117   
     21. B(O  20,C  19)                  1.4391         0.467191   
     22. B(C  21,C  19)                  1.5469         0.351143   
     23. B(O  22,C  21)                  1.4469         0.454031   
     24. B(C  23,C  21)                  1.5439         0.354996   
     25. B(O  24,C  23)                  1.4452         0.456860   
     26. B(C  25,C  23)                  1.5376         0.363331   
     27. B(O  26,C  25)                  1.4413         0.463397   
     28. B(C  27,C  25)                  1.5331         0.369283   
     29. B(O  28,C  27)                  1.4245         0.492974   
     30. B(P  29,O  28)                  1.6005         0.867949   
     31. B(O  30,P  29)                  1.4930         1.288387   
     32. B(O  31,P  29)                  1.5970         0.879216   
     33. B(O  32,P  29)                  1.5934         0.890883   
     34. B(H  33,C   3)                  1.0962         0.351949   
     35. B(H  34,C   4)                  1.0956         0.352766   
     36. B(H  35,C   4)                  1.0975         0.350362   
     37. B(H  36,O   8)                  0.9784         0.486027   
     38. B(H  37,O   9)                  0.9771         0.488279   
     39. B(H  38,C  10)                  1.0988         0.348649   
     40. B(H  39,O  11)                  0.9755         0.491130   
     41. B(H  40,O  30)                  3.7853         0.000016   
     42. B(H  40,C  12)                  1.0988         0.348636   
     43. B(H  41,O  13)                  0.9803         0.482594   
     44. B(H  42,O  15)                  0.9834         0.477187   
     45. B(H  43,O  17)                  0.9805         0.482277   
     46. B(H  44,O  18)                  0.9803         0.482532   
     47. B(H  45,C  19)                  1.0962         0.351965   
     48. B(H  46,O  20)                  0.9891         0.467306   
     49. B(H  47,C  21)                  1.0957         0.352658   
     50. B(H  48,O  22)                  0.9841         0.475898   
     51. B(H  49,C  23)                  1.0964         0.351780   
     52. B(H  50,O  24)                  0.9814         0.480659   
     53. B(H  51,C  25)                  1.0950         0.353542   
     54. B(H  52,O  26)                  0.9771         0.488278   
     55. B(H  53,C  27)                  1.0953         0.353169   
     56. B(H  54,C  27)                  1.0930         0.356159   
     57. B(H  55,O  31)                  0.9777         0.487188   
     58. B(H  56,O  32)                  0.9774         0.487761   
     59. A(O   0,C   1,O   2)          120.2422         0.468120   
     60. A(O   0,C   1,C  14)          124.0678         0.429132   
     61. A(O   2,C   1,C  14)          115.6893         0.393290   
     62. A(C   1,O   2,C   3)          118.9474         0.404699   
     63. A(O   2,C   3,C  10)          109.0338         0.373352   
     64. A(O   2,C   3,C   4)          107.6264         0.371924   
     65. A(O   2,C   3,H  33)          108.8471         0.331280   
     66. A(C   4,C   3,C  10)          110.9495         0.362777   
     67. A(C   4,C   3,H  33)          107.7784         0.322269   
     68. A(C  10,C   3,H  33)          112.4688         0.323447   
     69. A(C   3,C   4,O   5)          108.6671         0.378347   
     70. A(C   3,C   4,H  35)          110.4290         0.322030   
     71. A(H  34,C   4,H  35)          108.2380         0.288659   
     72. A(C   3,C   4,H  34)          111.1781         0.322391   
     73. A(O   5,C   4,H  34)          107.6190         0.336910   
     74. A(O   5,C   4,H  35)          110.6786         0.336527   
     75. A(C   4,O   5,P   6)          119.0350         0.467012   
     76. A(O   5,P   6,O   9)          104.5648         0.555215   
     77. A(O   8,P   6,O   9)          102.3321         0.557295   
     78. A(O   5,P   6,O   7)          116.5636         0.599313   
     79. A(O   7,P   6,O   9)          113.0196         0.600729   
     80. A(O   7,P   6,O   8)          113.6463         0.601590   
     81. A(O   5,P   6,O   8)          105.2969         0.555999   
     82. A(P   6,O   8,H  36)          111.6833         0.414473   
     83. A(P   6,O   9,H  37)          110.1568         0.414266   
     84. A(C   3,C  10,C  12)          112.0363         0.360572   
     85. A(C   3,C  10,O  11)          112.9133         0.378011   
     86. A(O  11,C  10,H  38)          105.7796         0.334725   
     87. A(C   3,C  10,H  38)          108.3170         0.322947   
     88. A(C  12,C  10,H  38)          107.9979         0.319898   
     89. A(O  11,C  10,C  12)          109.4843         0.374244   
     90. A(C  10,O  11,H  39)          108.6957         0.351446   
     91. A(C  14,C  12,H  40)          108.2601         0.320043   
     92. A(C  10,C  12,C  14)          113.2509         0.357203   
     93. A(O  13,C  12,C  14)          112.8564         0.372822   
     94. A(O  13,C  12,H  40)          105.5878         0.333342   
     95. A(C  10,C  12,H  40)          108.4715         0.319896   
     96. A(C  10,C  12,O  13)          108.0592         0.372642   
     97. A(C  12,O  13,H  41)          106.4432         0.348938   
     98. A(O  15,C  14,C  16)          106.9604         0.362375   
     99. A(C  12,C  14,C  16)          116.0780         0.351037   
    100. A(C   1,C  14,O  15)          107.0151         0.371388   
    101. A(C   1,C  14,C  16)          110.9867         0.353284   
    102. A(C  12,C  14,O  15)          107.4398         0.368986   
    103. A(C   1,C  14,C  12)          107.9478         0.359676   
    104. A(C  14,O  15,H  42)          105.1047         0.344772   
    105. A(C  14,C  16,C  19)          112.2255         0.343377   
    106. A(O  17,C  16,O  18)          106.1077         0.393967   
    107. A(C  14,C  16,O  18)          106.8423         0.367495   
    108. A(C  14,C  16,O  17)          114.2963         0.369168   
    109. A(O  18,C  16,C  19)          109.5261         0.365892   
    110. A(O  17,C  16,C  19)          107.6104         0.367557   
    111. A(C  16,O  17,H  43)          106.6667         0.351758   
    112. A(C  16,O  18,H  44)          104.3633         0.350220   
    113. A(C  21,C  19,H  45)          107.3083         0.319847   
    114. A(O  20,C  19,H  45)          107.4831         0.333232   
    115. A(C  16,C  19,H  45)          109.8445         0.313772   
    116. A(O  20,C  19,C  21)          106.8244         0.371236   
    117. A(C  16,C  19,C  21)          113.9119         0.348748   
    118. A(C  16,C  19,O  20)          111.1854         0.363810   
    119. A(C  19,O  20,H  46)          107.6292         0.346380   
    120. A(C  23,C  21,H  47)          109.7769         0.320521   
    121. A(O  22,C  21,H  47)          104.9000         0.331766   
    122. A(C  19,C  21,H  47)          109.7290         0.319949   
    123. A(O  22,C  21,C  23)          106.7104         0.370111   
    124. A(C  19,C  21,C  23)          114.8714         0.356427   
    125. A(C  19,C  21,O  22)          110.3515         0.369417   
    126. A(C  21,O  22,H  48)          106.1273         0.345778   
    127. A(O  24,C  23,H  49)          104.4597         0.331971   
    128. A(C  25,C  23,H  49)          109.2185         0.321609   
    129. A(O  24,C  23,C  25)          108.3516         0.371989   
    130. A(C  21,C  23,H  49)          109.9368         0.320390   
    131. A(C  21,C  23,C  25)          115.9487         0.358501   
    132. A(C  21,C  23,O  24)          108.2886         0.370506   
    133. A(C  23,O  24,H  50)          105.0341         0.346719   
    134. A(C  27,C  25,H  51)          110.0849         0.322730   
    135. A(O  26,C  25,H  51)          106.0598         0.333029   
    136. A(O  26,C  25,C  27)          108.1499         0.373946   
    137. A(C  23,C  25,C  27)          113.4128         0.360918   
    138. A(C  23,C  25,H  51)          110.9678         0.321872   
    139. A(C  23,C  25,O  26)          107.8320         0.372900   
    140. A(C  25,O  26,H  52)          105.2183         0.348471   
    141. A(H  53,C  27,H  54)          108.3215         0.289454   
    142. A(O  28,C  27,H  54)          109.7215         0.336884   
    143. A(C  25,C  27,H  54)          111.3556         0.323120   
    144. A(O  28,C  27,H  53)          107.0603         0.336411   
    145. A(C  25,C  27,O  28)          109.1107         0.377965   
    146. A(C  25,C  27,H  53)          111.1706         0.322674   
    147. A(C  27,O  28,P  29)          117.0794         0.466843   
    148. A(O  31,P  29,O  32)          101.7438         0.559761   
    149. A(O  30,P  29,O  32)          115.1829         0.602288   
    150. A(O  28,P  29,O  32)          102.6079         0.558388   
    151. A(O  30,P  29,O  31)          115.3961         0.600759   
    152. A(O  28,P  29,O  31)          103.2058         0.556990   
    153. A(O  28,P  29,O  30)          116.6631         0.599267   
    154. A(P  29,O  31,H  55)          113.0382         0.414744   
    155. A(P  29,O  32,H  56)          111.1511         0.415804   
    156. D(C   3,O   2,C   1,O   0)   -162.6622         0.028108   
    157. D(C   3,O   2,C   1,C  14)     17.6417         0.028108   
    158. D(C   4,C   3,O   2,C   1)    160.1666         0.016014   
    159. D(H  33,C   3,O   2,C   1)    -83.2831         0.016014   
    160. D(C  10,C   3,O   2,C   1)     39.7379         0.016014   
    161. D(O   5,C   4,C   3,H  33)    -53.0513         0.010818   
    162. D(H  35,C   4,C   3,C  10)     61.8358         0.010818   
    163. D(O   5,C   4,C   3,O   2)     64.1962         0.010818   
    164. D(H  35,C   4,C   3,O   2)    -57.3769         0.010818   
    165. D(O   5,C   4,C   3,C  10)   -176.5911         0.010818   
    166. D(H  34,C   4,C   3,O   2)   -177.5404         0.010818   
    167. D(H  35,C   4,C   3,H  33)   -174.6244         0.010818   
    168. D(H  34,C   4,C   3,H  33)     65.2122         0.010818   
    169. D(H  34,C   4,C   3,C  10)    -58.3276         0.010818   
    170. D(P   6,O   5,C   4,C   3)   -120.5416         0.019598   
    171. D(P   6,O   5,C   4,H  34)    118.9683         0.019598   
    172. D(P   6,O   5,C   4,H  35)      0.8788         0.019598   
    173. D(O   9,P   6,O   5,C   4)    -56.0622         0.012844   
    174. D(O   8,P   6,O   5,C   4)     51.3858         0.012844   
    175. D(O   7,P   6,O   5,C   4)    178.3735         0.012844   
    176. D(H  36,O   8,P   6,O   7)    -47.8750         0.013334   
    177. D(H  36,O   8,P   6,O   5)     80.8709         0.013334   
    178. D(H  36,O   8,P   6,O   9)   -170.0626         0.013334   
    179. D(H  37,O   9,P   6,O   8)     85.0867         0.013146   
    180. D(H  37,O   9,P   6,O   7)    -37.5269         0.013146   
    181. D(H  37,O   9,P   6,O   5)   -165.2907         0.013146   
    182. D(O  11,C  10,C   3,O   2)    178.9364         0.011281   
    183. D(O  11,C  10,C   3,C   4)     60.5723         0.011281   
    184. D(C  12,C  10,C   3,C   4)   -175.2509         0.011281   
    185. D(O  11,C  10,C   3,H  33)    -60.2346         0.011281   
    186. D(C  12,C  10,C   3,O   2)    -56.8867         0.011281   
    187. D(H  38,C  10,C   3,C   4)    -56.2305         0.011281   
    188. D(H  38,C  10,C   3,H  33)   -177.0374         0.011281   
    189. D(H  38,C  10,C   3,O   2)     62.1336         0.011281   
    190. D(C  12,C  10,C   3,H  33)     63.9423         0.011281   
    191. D(H  39,O  11,C  10,H  38)    175.3812         0.018526   
    192. D(H  39,O  11,C  10,C   3)     57.0867         0.018526   
    193. D(H  39,O  11,C  10,C  12)    -68.4786         0.018526   
    194. D(H  40,C  12,C  10,O  11)     23.4022         0.010122   
    195. D(H  40,C  12,C  10,C   3)   -102.6658         0.010122   
    196. D(C  14,C  12,C  10,H  38)   -101.6706         0.010122   
    197. D(C  14,C  12,C  10,O  11)    143.6057         0.010122   
    198. D(C  14,C  12,C  10,C   3)     17.5377         0.010122   
    199. D(O  13,C  12,C  10,H  38)     24.1152         0.010122   
    200. D(O  13,C  12,C  10,O  11)    -90.6086         0.010122   
    201. D(H  40,C  12,C  10,H  38)    138.1260         0.010122   
    202. D(O  13,C  12,C  10,C   3)    143.3234         0.010122   
    203. D(H  41,O  13,C  12,H  40)    -61.3120         0.017608   
    204. D(H  41,O  13,C  12,C  14)   -179.3857         0.017608   
    205. D(H  41,O  13,C  12,C  10)     54.5966         0.017608   
    206. D(O  15,C  14,C  12,H  40)     40.5347         0.010175   
    207. D(O  15,C  14,C  12,O  13)    157.0318         0.010175   
    208. D(O  15,C  14,C  12,C  10)    -79.7890         0.010175   
    209. D(C   1,C  14,C  12,O  13)    -87.8702         0.010175   
    210. D(C   1,C  14,C  12,C  10)     35.3090         0.010175   
    211. D(C  16,C  14,C   1,O   2)    175.0525         0.010227   
    212. D(C  16,C  14,C   1,O   0)     -4.6305         0.010227   
    213. D(C   1,C  14,C  12,H  40)    155.6327         0.010175   
    214. D(O  15,C  14,C   1,O   2)     58.6850         0.010227   
    215. D(O  15,C  14,C   1,O   0)   -120.9981         0.010227   
    216. D(C  16,C  14,C  12,C  10)    160.5959         0.010175   
    217. D(C  12,C  14,C   1,O   2)    -56.6924         0.010227   
    218. D(C  12,C  14,C   1,O   0)    123.6246         0.010227   
    219. D(C  16,C  14,C  12,H  40)    -79.0803         0.010175   
    220. D(C  16,C  14,C  12,O  13)     37.4168         0.010175   
    221. D(H  42,O  15,C  14,C  16)    -43.0283         0.015596   
    222. D(H  42,O  15,C  14,C  12)   -168.3056         0.015596   
    223. D(H  42,O  15,C  14,C   1)     75.9780         0.015596   
    224. D(C  19,C  16,C  14,O  15)    -74.7703         0.008402   
    225. D(C  19,C  16,C  14,C  12)     45.1044         0.008402   
    226. D(C  19,C  16,C  14,C   1)    168.8285         0.008402   
    227. D(O  18,C  16,C  14,O  15)     45.2920         0.008402   
    228. D(O  18,C  16,C  14,C  12)    165.1667         0.008402   
    229. D(O  18,C  16,C  14,C   1)    -71.1092         0.008402   
    230. D(O  17,C  16,C  14,O  15)    162.3383         0.008402   
    231. D(O  17,C  16,C  14,C  12)    -77.7870         0.008402   
    232. D(O  17,C  16,C  14,C   1)     45.9370         0.008402   
    233. D(H  43,O  17,C  16,C  19)   -175.4267         0.019440   
    234. D(H  43,O  17,C  16,O  18)     67.4012         0.019440   
    235. D(H  43,O  17,C  16,C  14)    -50.0667         0.019440   
    236. D(H  44,O  18,C  16,C  19)    -64.8624         0.018411   
    237. D(H  44,O  18,C  16,O  17)     51.0205         0.018411   
    238. D(H  44,O  18,C  16,C  14)    173.3564         0.018411   
    239. D(H  45,C  19,C  16,O  18)    -87.5403         0.008033   
    240. D(H  45,C  19,C  16,C  14)     30.9494         0.008033   
    241. D(C  21,C  19,C  16,O  18)     32.8582         0.008033   
    242. D(C  21,C  19,C  16,O  17)    -82.0657         0.008033   
    243. D(C  21,C  19,C  16,C  14)    151.3479         0.008033   
    244. D(O  20,C  19,C  16,O  18)    153.6162         0.008033   
    245. D(H  45,C  19,C  16,O  17)    157.5358         0.008033   
    246. D(O  20,C  19,C  16,O  17)     38.6922         0.008033   
    247. D(O  20,C  19,C  16,C  14)    -87.8942         0.008033   
    248. D(H  46,O  20,C  19,H  45)    -99.0183         0.017202   
    249. D(H  46,O  20,C  19,C  21)    146.0768         0.017202   
    250. D(H  46,O  20,C  19,C  16)     21.2325         0.017202   
    251. D(H  47,C  21,C  19,H  45)     50.2885         0.009929   
    252. D(H  47,C  21,C  19,C  16)    -71.5229         0.009929   
    253. D(C  23,C  21,C  19,H  45)    -73.9372         0.009929   
    254. D(C  23,C  21,C  19,O  20)     41.0853         0.009929   
    255. D(C  23,C  21,C  19,C  16)    164.2514         0.009929   
    256. D(O  22,C  21,C  19,H  45)    165.3999         0.009929   
    257. D(H  47,C  21,C  19,O  20)    165.3110         0.009929   
    258. D(O  22,C  21,C  19,O  20)    -79.5776         0.009929   
    259. D(O  22,C  21,C  19,C  16)     43.5885         0.009929   
    260. D(H  48,O  22,C  21,H  47)    161.4422         0.016236   
    261. D(H  48,O  22,C  21,C  23)    -82.1057         0.016236   
    262. D(H  48,O  22,C  21,C  19)     43.3253         0.016236   
    263. D(H  49,C  23,C  21,H  47)    165.1019         0.010131   
    264. D(H  49,C  23,C  21,O  22)     51.9455         0.010131   
    265. D(H  49,C  23,C  21,C  19)    -70.6976         0.010131   
    266. D(C  25,C  23,C  21,H  47)    -70.4316         0.010131   
    267. D(C  25,C  23,C  21,O  22)    176.4119         0.010131   
    268. D(C  25,C  23,C  21,C  19)     53.7688         0.010131   
    269. D(O  24,C  23,C  21,H  47)     51.5470         0.010131   
    270. D(O  24,C  23,C  21,O  22)    -61.6094         0.010131   
    271. D(O  24,C  23,C  21,C  19)    175.7475         0.010131   
    272. D(H  50,O  24,C  23,H  49)    -69.9613         0.016441   
    273. D(H  50,O  24,C  23,C  25)    173.6989         0.016441   
    274. D(H  50,O  24,C  23,C  21)     47.1742         0.016441   
    275. D(H  51,C  25,C  23,C  21)    -60.5113         0.010577   
    276. D(C  27,C  25,C  23,H  49)   -171.1549         0.010577   
    277. D(C  27,C  25,C  23,O  24)    -57.9362         0.010577   
    278. D(C  27,C  25,C  23,C  21)     64.0090         0.010577   
    279. D(O  26,C  25,C  23,H  49)    -51.4276         0.010577   
    280. D(O  26,C  25,C  23,O  24)     61.7911         0.010577   
    281. D(H  51,C  25,C  23,O  24)    177.5435         0.010577   
    282. D(O  26,C  25,C  23,C  21)   -176.2637         0.010577   
    283. D(H  51,C  25,C  23,H  49)     64.3248         0.010577   
    284. D(H  52,O  26,C  25,H  51)   -168.6084         0.016920   
    285. D(H  52,O  26,C  25,C  27)     73.3287         0.016920   
    286. D(H  52,O  26,C  25,C  23)    -49.6764         0.016920   
    287. D(H  54,C  27,C  25,H  51)     76.9706         0.010904   
    288. D(H  54,C  27,C  25,O  26)   -167.5719         0.010904   
    289. D(H  54,C  27,C  25,C  23)    -48.0260         0.010904   
    290. D(H  53,C  27,C  25,H  51)   -162.1401         0.010904   
    291. D(H  53,C  27,C  25,O  26)    -46.6825         0.010904   
    292. D(H  53,C  27,C  25,C  23)     72.8633         0.010904   
    293. D(O  28,C  27,C  25,H  51)    -44.2905         0.010904   
    294. D(O  28,C  27,C  25,O  26)     71.1671         0.010904   
    295. D(O  28,C  27,C  25,C  23)   -169.2871         0.010904   
    296. D(P  29,O  28,C  27,H  54)      2.6850         0.019197   
    297. D(P  29,O  28,C  27,H  53)   -114.6581         0.019197   
    298. D(P  29,O  28,C  27,C  25)    124.9352         0.019197   
    299. D(O  32,P  29,O  28,C  27)    175.3357         0.013042   
    300. D(O  31,P  29,O  28,C  27)     69.8668         0.013042   
    301. D(O  30,P  29,O  28,C  27)    -57.7786         0.013042   
    302. D(H  55,O  31,P  29,O  32)     67.0183         0.013367   
    303. D(H  55,O  31,P  29,O  30)    -58.4176         0.013367   
    304. D(H  55,O  31,P  29,O  28)    173.1462         0.013367   
    305. D(H  56,O  32,P  29,O  31)    174.1462         0.013708   
    306. D(H  56,O  32,P  29,O  30)    -60.2766         0.013708   
    307. D(H  56,O  32,P  29,O  28)     67.5517         0.013708   
    -----------------------------------------------------------------

Number of atoms                         .... 57
Number of degrees of freedom            .... 307

         *************************************************************
         *                GEOMETRY OPTIMIZATION CYCLE   1            *
         *************************************************************
---------------------------------
CARTESIAN COORDINATES (ANGSTROEM)
---------------------------------
  O     2.977700   -0.462400   -2.100900
  C     2.565500    0.131500   -1.107500
  O     3.375300    1.003700   -0.444200
  C     3.026200    1.396500    0.905900
  C     4.295200    1.941900    1.573900
  O     4.702600    3.117300    0.885500
  P     6.156000    3.159600    0.211300
  O     6.511900    4.404100   -0.528100
  O     6.245800    1.837000   -0.679900
  O     7.164600    2.833600    1.409000
  C     2.493800    0.177200    1.657800
  O     2.145300    0.467700    3.013100
  C     1.285300   -0.463100    0.941200
  O     1.377500   -1.887400    1.099200
  C     1.153000   -0.031000   -0.534400
  O     0.534500    1.283000   -0.549400
  C     0.277100   -0.960600   -1.450800
  O     0.930500   -2.153000   -1.870000
  O    -0.003500   -0.221900   -2.642700
  C    -1.078500   -1.377400   -0.756800
  O    -0.913200   -2.568300    0.034100
  C    -2.231500   -1.655800   -1.749700
  O    -1.754200   -2.440100   -2.868000
  C    -3.432700   -2.419800   -1.152200
  O    -4.459700   -2.513400   -2.164700
  C    -4.055600   -1.809600    0.114200
  O    -5.093400   -2.700500    0.568900
  C    -4.679700   -0.428700   -0.118500
  O    -5.001600    0.155700    1.140100
  P    -4.393000    1.603600    1.448100
  O    -2.906200    1.729900    1.398000
  O    -5.195400    2.556700    0.449000
  O    -5.057700    1.969400    2.849300
  H     2.295300    2.212200    0.859600
  H     4.106100    2.217400    2.617300
  H     5.091700    1.187100    1.556900
  H     5.794900    1.949900   -1.540800
  H     8.078700    3.063400    1.151400
  H     3.294600   -0.573400    1.709500
  H     1.485800    1.186500    3.019200
  H     0.369300   -0.166000    1.470400
  H     1.447300   -2.055800    2.062400
  H     0.292300    1.441500   -1.489200
  H     1.801600   -1.884300   -2.231000
  H    -0.453200   -0.866800   -3.228300
  H    -1.413000   -0.579100   -0.084100
  H     0.049400   -2.658000    0.242900
  H    -2.574200   -0.713800   -2.192100
  H    -1.177600   -3.139600   -2.485000
  H    -3.151300   -3.460100   -0.950700
  H    -3.991800   -2.808300   -2.975400
  H    -3.322600   -1.759000    0.926100
  H    -5.638700   -2.883400   -0.221000
  H    -5.614000   -0.507200   -0.684700
  H    -3.999700    0.228100   -0.667000
  H    -5.008500    3.505600    0.592500
  H    -4.724300    1.387600    3.560400

----------------------------
CARTESIAN COORDINATES (A.U.)
----------------------------
  NO LB    ZA    FRAG    MASS        X           Y           Z
   0 O   8.0000    0    15.999    5.627038   -0.873809   -3.970126
   1 C   6.0000    0    12.011    4.848092    0.248499   -2.092872
   2 O   8.0000    0    15.999    6.378393    1.896718   -0.839416
   3 C   6.0000    0    12.011    5.718689    2.639003    1.711903
   4 C   6.0000    0    12.011    8.116752    3.669659    2.974240
   5 O   8.0000    0    15.999    8.886626    5.890843    1.673352
   6 P  15.0000    0    30.974   11.633154    5.970779    0.399299
   7 O   8.0000    0    15.999   12.305708    8.322543   -0.997964
   8 O   8.0000    0    15.999   11.802851    3.471427   -1.284825
   9 O   8.0000    0    15.999   13.539132    5.354728    2.662624
  10 C   6.0000    0    12.011    4.712599    0.334859    3.132788
  11 O   8.0000    0    15.999    4.054029    0.883825    5.693934
  12 C   6.0000    0    12.011    2.428865   -0.875132    1.778610
  13 O   8.0000    0    15.999    2.603098   -3.566669    2.077187
  14 C   6.0000    0    12.011    2.178854   -0.058582   -1.009870
  15 O   8.0000    0    15.999    1.010059    2.424519   -1.038216
  16 C   6.0000    0    12.011    0.523643   -1.815271   -2.741615
  17 O   8.0000    0    15.999    1.758390   -4.068580   -3.533788
  18 O   8.0000    0    15.999   -0.006614   -0.419330   -4.993979
  19 C   6.0000    0    12.011   -2.038070   -2.602909   -1.430145
  20 O   8.0000    0    15.999   -1.725698   -4.853384    0.064440
  21 C   6.0000    0    12.011   -4.216924   -3.129009   -3.306454
  22 O   8.0000    0    15.999   -3.314958   -4.611121   -5.419735
  23 C   6.0000    0    12.011   -6.486863   -4.572759   -2.177342
  24 O   8.0000    0    15.999   -8.427612   -4.749638   -4.090690
  25 C   6.0000    0    12.011   -7.663973   -3.419648    0.215807
  26 O   8.0000    0    15.999   -9.625131   -5.103205    1.075065
  27 C   6.0000    0    12.011   -8.843351   -0.810126   -0.223933
  28 O   8.0000    0    15.999   -9.451654    0.294230    2.154477
  29 P  15.0000    0    30.974   -8.301567    3.030365    2.736512
  30 O   8.0000    0    15.999   -5.491922    3.269037    2.641837
  31 O   8.0000    0    15.999   -9.817883    4.831463    0.848487
  32 O   8.0000    0    15.999   -9.557668    3.721627    5.384397
  33 H   1.0000    0     1.008    4.337488    4.180452    1.624409
  34 H   1.0000    0     1.008    7.759404    4.190279    4.945980
  35 H   1.0000    0     1.008    9.621919    2.243294    2.942115
  36 H   1.0000    0     1.008   10.950774    3.684777   -2.911690
  37 H   1.0000    0     1.008   15.266531    5.788987    2.175831
  38 H   1.0000    0     1.008    6.225892   -1.083569    3.230487
  39 H   1.0000    0     1.008    2.807755    2.242160    5.705461
  40 H   1.0000    0     1.008    0.697876   -0.313695    2.778653
  41 H   1.0000    0     1.008    2.735001   -3.884899    3.897371
  42 H   1.0000    0     1.008    0.552367    2.724040   -2.814180
  43 H   1.0000    0     1.008    3.404531   -3.560811   -4.215979
  44 H   1.0000    0     1.008   -0.856424   -1.638015   -6.100603
  45 H   1.0000    0     1.008   -2.670183   -1.094340   -0.158926
  46 H   1.0000    0     1.008    0.093352   -5.022892    0.459014
  47 H   1.0000    0     1.008   -4.864533   -1.348887   -4.142469
  48 H   1.0000    0     1.008   -2.225341   -5.932984   -4.695969
  49 H   1.0000    0     1.008   -5.955094   -6.538641   -1.796563
  50 H   1.0000    0     1.008   -7.543409   -5.306918   -5.622691
  51 H   1.0000    0     1.008   -6.278804   -3.324028    1.750075
  52 H   1.0000    0     1.008  -10.655599   -5.448836   -0.417629
  53 H   1.0000    0     1.008  -10.608923   -0.958469   -1.293895
  54 H   1.0000    0     1.008   -7.558338    0.431047   -1.260447
  55 H   1.0000    0     1.008   -9.464693    6.624624    1.119663
  56 H   1.0000    0     1.008   -8.927633    2.622184    6.728181

      -----------------------------------------------------------      
     |                   =====================                   |     
     |                           x T B                           |     
     |                   =====================                   |     
     |                         S. Grimme                         |     
     |          Mulliken Center for Theoretical Chemistry        |     
     |                    University of Bonn                     |     
      -----------------------------------------------------------      

   * xtb version 6.5.1 (579679a) compiled by 'ehlert@majestix' on 2022-07-11

   xtb is free software: you can redistribute it and/or modify it under
   the terms of the GNU Lesser General Public License as published by
   the Free Software Foundation, either version 3 of the License, or
   (at your option) any later version.
   
   xtb is distributed in the hope that it will be useful,
   but WITHOUT ANY WARRANTY; without even the implied warranty of
   MERCHANTABILITY or FITNESS FOR A PARTICULAR PURPOSE.  See the
   GNU Lesser General Public License for more details.
   
   Cite this work as:
   * C. Bannwarth, E. Caldeweyher, S. Ehlert, A. Hansen, P. Pracht,
     J. Seibert, S. Spicher, S. Grimme, WIREs Comput. Mol. Sci., 2020, 11,
     e01493. DOI: 10.1002/wcms.1493
   
   for GFN2-xTB:
   * C. Bannwarth, S. Ehlert and S. Grimme., J. Chem. Theory Comput., 2019,
     15, 1652-1671. DOI: 10.1021/acs.jctc.8b01176
   for GFN1-xTB:
   * S. Grimme, C. Bannwarth, P. Shushkov, J. Chem. Theory Comput., 2017,
     13, 1989-2009. DOI: 10.1021/acs.jctc.7b00118
   for GFN0-xTB:
   * P. Pracht, E. Caldeweyher, S. Ehlert, S. Grimme, ChemRxiv, 2019, preprint.
     DOI: 10.26434/chemrxiv.8326202.v1
   for GFN-FF:
   * S. Spicher and S. Grimme, Angew. Chem. Int. Ed., 2020, 59, 15665-15673.
     DOI: 10.1002/anie.202004239
   
   for ALPB and GBSA implicit solvation:
   * S. Ehlert, M. Stahn, S. Spicher, S. Grimme, J. Chem. Theory Comput.,
     2021, 17, 4250-4261. DOI: 10.1021/acs.jctc.1c00471
   
   for DFT-D4:
   * E. Caldeweyher, C. Bannwarth and S. Grimme, J. Chem. Phys., 2017,
     147, 034112. DOI: 10.1063/1.4993215
   * E. Caldeweyher, S. Ehlert, A. Hansen, H. Neugebauer, S. Spicher,
     C. Bannwarth and S. Grimme, J. Chem. Phys., 2019, 150, 154122.
     DOI: 10.1063/1.5090222
   * E. Caldeweyher, J.-M. Mewes, S. Ehlert and S. Grimme, Phys. Chem. Chem. Phys.
     2020, 22, 8499-8512. DOI: 10.1039/D0CP00502A
   
   for sTDA-xTB:
   * S. Grimme and C. Bannwarth, J. Chem. Phys., 2016, 145, 054103.
     DOI: 10.1063/1.4959605
   
   in the mass-spec context:
   * V. Asgeirsson, C. Bauer and S. Grimme, Chem. Sci., 2017, 8, 4879.
     DOI: 10.1039/c7sc00601b
   * J. Koopman and S. Grimme, ACS Omega 2019, 4, 12, 15120-15133.
     DOI: 10.1021/acsomega.9b02011
   
   for metadynamics refer to:
   * S. Grimme, J. Chem. Theory Comput., 2019, 155, 2847-2862
     DOI: 10.1021/acs.jctc.9b00143
   
   for SPH calculations refer to:
   * S. Spicher and S. Grimme, J. Chem. Theory Comput., 2021, 17, 1701-1714
     DOI: 10.1021/acs.jctc.0c01306
   
   with help from (in alphabetical order)
   P. Atkinson, C. Bannwarth, F. Bohle, G. Brandenburg, E. Caldeweyher
   M. Checinski, S. Dohm, S. Ehlert, S. Ehrlich, I. Gerasimov, C. Hölzer
   A. Katbashev, J. Koopman, C. Lavigne, S. Lehtola, F. März, M. Müller,
   F. Musil, H. Neugebauer, J. Pisarek, C. Plett, P. Pracht, F. Pultar,
   J. Seibert, P. Shushkov, S. Spicher, M. Stahn, M. Steiner, T. Strunk,
   J. Stückrath, T. Rose, and J. Unsleber
   
 * started run on 2023/12/06 at 20:01:25.190     

           -------------------------------------------------
          |                Calculation Setup                |
           -------------------------------------------------

          program call               : otool_xtb /tmp/16_XTB.xyz --grad -c 0 -u 0 -P 1 --namespace /tmp/16 --input /tmp/16_XTB.input.tmp --acc 1.000000
          calculation namespace      : /tmp/16
          coordinate file            : /tmp/16_XTB.xyz
          omp threads                :                     1

   ID    Z sym.   atoms
    1    8 O      1, 3, 6, 8-10, 12, 14, 16, 18, 19, 21, 23, 25, 27, 29, 31-33
    2    6 C      2, 4, 5, 11, 13, 15, 17, 20, 22, 24, 26, 28
    3   15 P      7, 30
    4    1 H      34-57

           -------------------------------------------------
          |                 G F N 2 - x T B                 |
           -------------------------------------------------

        Reference                      10.1021/acs.jctc.8b01176
      * Hamiltonian:
        H0-scaling (s, p, d)           1.850000    2.230000    2.230000
        zeta-weighting                 0.500000
      * Dispersion:
        s8                             2.700000
        a1                             0.520000
        a2                             5.000000
        s9                             5.000000
      * Repulsion:
        kExp                           1.500000    1.000000
        rExp                           1.000000
      * Coulomb:
        alpha                          2.000000
        third order                    shell-resolved
        anisotropic                    true
        a3                             3.000000
        a5                             4.000000
        cn-shift                       1.200000
        cn-exp                         4.000000
        max-rad                        5.000000


          ...................................................
          :                      SETUP                      :
          :.................................................:
          :  # basis functions                 168          :
          :  # atomic orbitals                 166          :
          :  # shells                           92          :
          :  # electrons                       196          :
          :  max. iterations                   250          :
          :  Hamiltonian                  GFN2-xTB          :
          :  restarted?                      false          :
          :  GBSA solvation                  false          :
          :  PC potential                    false          :
          :  electronic temp.          300.0000000     K    :
          :  accuracy                    1.0000000          :
          :  -> integral cutoff          0.2500000E+02      :
          :  -> integral neglect         0.1000000E-07      :
          :  -> SCF convergence          0.1000000E-05 Eh   :
          :  -> wf. convergence          0.1000000E-03 e    :
          :  Broyden damping             0.4000000          :
          ...................................................

 iter      E             dE          RMSdq      gap      omega  full diag
   1   -121.0587654 -0.121059E+03  0.649E+00    4.47       0.0  T
   2   -121.2085006 -0.149735E+00  0.369E+00    3.59       1.0  T
   3   -121.2263767 -0.178760E-01  0.112E+00    3.63       1.0  T
   4   -121.2417193 -0.153427E-01  0.494E-01    3.15       1.0  T
   5   -121.2436672 -0.194788E-02  0.192E-01    3.41       1.0  T
   6   -121.2440821 -0.414883E-03  0.703E-02    3.33       1.0  T
   7   -121.2441057 -0.235951E-04  0.306E-02    3.33       1.0  T
   8   -121.2441131 -0.737804E-05  0.113E-02    3.33       1.2  T
   9   -121.2441140 -0.905666E-06  0.478E-03    3.33       2.8  T
  10   -121.2441142 -0.233182E-06  0.143E-03    3.33       9.3  T
  11   -121.2441142 -0.154726E-07  0.682E-04    3.33      19.4  T
  12   -121.2441142 -0.183914E-08  0.158E-04    3.33      83.9  T

   *** convergence criteria satisfied after 12 iterations ***

         #    Occupation            Energy/Eh            Energy/eV
      -------------------------------------------------------------
         1        2.0000           -0.7778553             -21.1665
       ...           ...                  ...                  ...
        92        2.0000           -0.4378714             -11.9151
        93        2.0000           -0.4361197             -11.8674
        94        2.0000           -0.4347191             -11.8293
        95        2.0000           -0.4328146             -11.7775
        96        2.0000           -0.4217647             -11.4768
        97        2.0000           -0.4168724             -11.3437
        98        2.0000           -0.4153094             -11.3011 (HOMO)
        99                         -0.2928445              -7.9687 (LUMO)
       100                         -0.1041838              -2.8350
       101                         -0.0879089              -2.3921
       102                         -0.0804205              -2.1884
       103                         -0.0793027              -2.1579
       ...                                ...                  ...
       166                          1.2450915              33.8807
      -------------------------------------------------------------
                  HL-Gap            0.1224649 Eh            3.3324 eV
             Fermi-level           -0.3540769 Eh           -9.6349 eV

 SCC (total)                   0 d,  0 h,  0 min,  0.132 sec
 SCC setup                      ...        0 min,  0.000 sec (  0.353%)
 Dispersion                     ...        0 min,  0.001 sec (  0.552%)
 classical contributions        ...        0 min,  0.000 sec (  0.129%)
 integral evaluation            ...        0 min,  0.016 sec ( 12.388%)
 iterations                     ...        0 min,  0.056 sec ( 42.080%)
 molecular gradient             ...        0 min,  0.058 sec ( 44.001%)
 printout                       ...        0 min,  0.001 sec (  0.479%)

         :::::::::::::::::::::::::::::::::::::::::::::::::::::
         ::                     SUMMARY                     ::
         :::::::::::::::::::::::::::::::::::::::::::::::::::::
         :: total energy            -120.535472035817 Eh    ::
         :: gradient norm              0.134664012703 Eh/a0 ::
         :: HOMO-LUMO gap              3.332438566890 eV    ::
         ::.................................................::
         :: SCC energy              -121.244114244177 Eh    ::
         :: -> isotropic ES            0.471670617789 Eh    ::
         :: -> anisotropic ES         -0.020735023486 Eh    ::
         :: -> anisotropic XC         -0.015739057661 Eh    ::
         :: -> dispersion             -0.062147178111 Eh    ::
         :: repulsion energy           0.707467827475 Eh    ::
         :: add. restraining           0.000000000000 Eh    ::
         :: total charge               0.000000000000 e     ::
         :::::::::::::::::::::::::::::::::::::::::::::::::::::


Property printout bound to 'properties.out'

           -------------------------------------------------
          | TOTAL ENERGY             -120.535472035817 Eh   |
          | GRADIENT NORM               0.134664012703 Eh/α |
          | HOMO-LUMO GAP               3.332438566890 eV   |
           -------------------------------------------------

------------------------------------------------------------------------
 * finished run on 2023/12/06 at 20:01:25.346     
------------------------------------------------------------------------
 total:
 * wall-time:     0 d,  0 h,  0 min,  0.156 sec
 *  cpu-time:     0 d,  0 h,  0 min,  0.152 sec
 * ratio c/w:     0.976 speedup
 SCF:
 * wall-time:     0 d,  0 h,  0 min,  0.132 sec
 *  cpu-time:     0 d,  0 h,  0 min,  0.132 sec
 * ratio c/w:     0.998 speedup


-------------------------   --------------------
FINAL SINGLE POINT ENERGY      -120.535472035820
-------------------------   --------------------

------------------------------------------------------------------------------
                         ORCA GEOMETRY RELAXATION STEP
------------------------------------------------------------------------------

Reading the OPT-File                    .... done
Getting information on internals        .... done
Copying old internal coords+grads       .... done
Making the new internal coordinates     .... (new redundants).... done
Validating the new internal coordinates .... (new redundants).... done
Calculating the B-matrix                .... done
Calculating the G,G- and P matrices     .... done
Transforming gradient to internals      .... done
Projecting the internal gradient        .... done
Number of atoms                         ....  57
Number of internal coordinates          .... 307
Current Energy                          ....  -120.535472036 Eh
Current gradient norm                   ....     0.134664013 Eh/bohr
Maximum allowed component of the step   ....  0.300
Current trust radius                    ....  0.300
Evaluating the initial hessian          ....  (Almloef) done
Projecting the Hessian                  .... done
Forming the augmented Hessian           .... done
Diagonalizing the augmented Hessian     .... done
Last element of RFO vector              ....  0.913921591
Lowest eigenvalues of augmented Hessian:
 -0.032841437  0.000547569  0.008609377  0.009508494  0.010070664
Length of the computed step             ....  0.444119916
Warning: the length of the step is outside the trust region - taking restricted step instead
The input lambda is                     ....    -0.032841
   iter:   1  x=   -0.051340  g=    5.797320 f(x)=     0.107243
   iter:   2  x=   -0.067948  g=    2.345319 f(x)=     0.038951
   iter:   3  x=   -0.075133  g=    1.334700 f(x)=     0.009590
   iter:   4  x=   -0.075965  g=    1.093718 f(x)=     0.000910
   iter:   5  x=   -0.075974  g=    1.070238 f(x)=     0.000010
   iter:   6  x=   -0.075974  g=    1.069983 f(x)=     0.000000
   iter:   7  x=   -0.075974  g=    1.069983 f(x)=     0.000000
The output lambda is                    ....    -0.075974 (7 iterations)
The final length of the internal step   ....  0.300000000
Converting the step to cartesian space:
 Initial RMS(Int)=    0.0171219044
Transforming coordinates:
 Iter   0:  RMS(Cart)=    0.1741071688 RMS(Int)=    0.0165880559
 Iter   1:  RMS(Cart)=    0.0091710549 RMS(Int)=    0.0025907305
 Iter   2:  RMS(Cart)=    0.0005230917 RMS(Int)=    0.0000777654
 Iter   3:  RMS(Cart)=    0.0000620234 RMS(Int)=    0.0000184456
 Iter   4:  RMS(Cart)=    0.0000037454 RMS(Int)=    0.0000008053
 Iter   5:  RMS(Cart)=    0.0000004928 RMS(Int)=    0.0000001430
 Iter   6:  RMS(Cart)=    0.0000000301 RMS(Int)=    0.0000000082
done
Storing new coordinates                 .... done

                                .--------------------.
          ----------------------|Geometry convergence|-------------------------
          Item                value                   Tolerance       Converged
          ---------------------------------------------------------------------
          RMS gradient        0.0067210522            0.0001000000      NO
          MAX gradient        0.0413589370            0.0003000000      NO
          RMS step            0.0171219044            0.0020000000      NO
          MAX step            0.0616133931            0.0040000000      NO
          ........................................................
          Max(Bonds)      0.0259      Max(Angles)    2.73
          Max(Dihed)        3.53      Max(Improp)    0.00
          ---------------------------------------------------------------------

The optimization has not yet converged - more geometry cycles are needed


    ---------------------------------------------------------------------------
                         Redundant Internal Coordinates
                            (Angstroem and degrees)

        Definition                    Value    dE/dq     Step     New-Value
    ----------------------------------------------------------------------------
     1. B(C   1,O   0)                1.2286  0.041359 -0.0201    1.2085   
     2. B(O   2,C   1)                1.3625  0.027596 -0.0228    1.3397   
     3. B(C   3,O   2)                1.4488  0.014836 -0.0161    1.4326   
     4. B(C   4,C   3)                1.5343  0.005070 -0.0060    1.5282   
     5. B(O   5,C   4)                1.4218  0.006186 -0.0057    1.4161   
     6. B(P   6,O   5)                1.6027  0.009162 -0.0052    1.5975   
     7. B(O   7,P   6)                1.4907  0.037304 -0.0144    1.4763   
     8. B(O   8,P   6)                1.5974 -0.000992  0.0006    1.5979   
     9. B(O   9,P   6)                1.5994  0.005711 -0.0032    1.5962   
    10. B(C  10,C   3)                1.5282  0.003018 -0.0016    1.5266   
    11. B(O  11,C  10)                1.4292  0.018158 -0.0171    1.4121   
    12. B(C  12,C  10)                1.5440  0.002583 -0.0008    1.5432   
    13. B(O  13,C  12)                1.4360  0.012883 -0.0124    1.4236   
    14. B(C  14,C  12)                1.5432  0.007367 -0.0085    1.5347   
    15. B(C  14,C   1)                1.5330  0.000344 -0.0012    1.5318   
    16. B(O  15,C  14)                1.4524  0.025502 -0.0259    1.4265   
    17. B(C  16,C  14)                1.5720  0.008023 -0.0105    1.5615   
    18. B(O  17,C  16)                1.4228  0.020748 -0.0192    1.4036   
    19. B(O  18,C  16)                1.4300  0.014443 -0.0137    1.4164   
    20. B(C  19,C  16)                1.5789  0.013294 -0.0175    1.5614   
    21. B(O  20,C  19)                1.4391  0.019746 -0.0192    1.4199   
    22. B(C  21,C  19)                1.5469  0.011092 -0.0132    1.5336   
    23. B(O  22,C  21)                1.4469  0.015242 -0.0152    1.4317   
    24. B(C  23,C  21)                1.5439  0.007734 -0.0091    1.5348   
    25. B(O  24,C  23)                1.4452  0.013718 -0.0136    1.4316   
    26. B(C  25,C  23)                1.5376  0.007395 -0.0084    1.5291   
    27. B(O  26,C  25)                1.4413  0.018867 -0.0185    1.4228   
    28. B(C  27,C  25)                1.5331  0.002561 -0.0024    1.5308   
    29. B(O  28,C  27)                1.4245  0.003006 -0.0025    1.4220   
    30. B(P  29,O  28)                1.6005  0.011110 -0.0062    1.5943   
    31. B(O  30,P  29)                1.4930  0.029934 -0.0118    1.4812   
    32. B(O  31,P  29)                1.5970  0.005874 -0.0033    1.5938   
    33. B(O  32,P  29)                1.5934  0.003795 -0.0021    1.5913   
    34. B(H  33,C   3)                1.0962 -0.000560  0.0007    1.0969   
    35. B(H  34,C   4)                1.0956  0.001815 -0.0022    1.0934   
    36. B(H  35,C   4)                1.0975  0.002868 -0.0036    1.0939   
    37. B(H  36,O   8)                0.9784  0.018514 -0.0174    0.9609   
    38. B(H  37,O   9)                0.9771  0.018092 -0.0170    0.9601   
    39. B(H  38,C  10)                1.0988  0.001287 -0.0016    1.0972   
    40. B(H  39,O  11)                0.9755  0.008158 -0.0076    0.9679   
    41. B(H  40,O  30)                3.7853  0.000571 -0.0090    3.7763   
    42. B(H  40,C  12)                1.0988 -0.001114  0.0006    1.0994   
    43. B(H  41,O  13)                0.9803  0.012281 -0.0116    0.9687   
    44. B(H  42,O  15)                0.9834  0.011251 -0.0108    0.9726   
    45. B(H  43,O  17)                0.9805  0.005761 -0.0055    0.9750   
    46. B(H  44,O  18)                0.9803  0.006791 -0.0064    0.9739   
    47. B(H  45,C  19)                1.0962 -0.001976  0.0024    1.0987   
    48. B(H  46,O  20)                0.9891  0.014249 -0.0139    0.9752   
    49. B(H  47,C  21)                1.0957  0.001304 -0.0016    1.0941   
    50. B(H  48,O  22)                0.9841  0.012582 -0.0121    0.9720   
    51. B(H  49,C  23)                1.0964 -0.001301  0.0016    1.0980   
    52. B(H  50,O  24)                0.9814  0.012321 -0.0117    0.9697   
    53. B(H  51,C  25)                1.0950  0.003404 -0.0042    1.0908   
    54. B(H  52,O  26)                0.9771  0.009083 -0.0085    0.9686   
    55. B(H  53,C  27)                1.0953  0.001258 -0.0016    1.0937   
    56. B(H  54,C  27)                1.0930  0.000111 -0.0001    1.0929   
    57. B(H  55,O  31)                0.9777  0.018517 -0.0174    0.9603   
    58. B(H  56,O  32)                0.9774  0.018212 -0.0171    0.9603   
    59. A(O   0,C   1,O   2)          120.24  0.005848   -0.58    119.66   
    60. A(O   0,C   1,C  14)          124.07 -0.005489    0.66    124.73   
    61. A(O   2,C   1,C  14)          115.69 -0.000335   -0.09    115.60   
    62. A(C   1,O   2,C   3)          118.95 -0.004112   -0.00    118.94   
    63. A(O   2,C   3,C  10)          109.03 -0.000351   -0.07    108.97   
    64. A(O   2,C   3,C   4)          107.63  0.003919   -0.89    106.74   
    65. A(O   2,C   3,H  33)          108.85 -0.001140    0.25    109.10   
    66. A(C   4,C   3,C  10)          110.95 -0.002020    0.37    111.32   
    67. A(C   4,C   3,H  33)          107.78 -0.001632    0.48    108.26   
    68. A(C  10,C   3,H  33)          112.47  0.001364   -0.18    112.28   
    69. A(C   3,C   4,O   5)          108.67  0.000882   -0.18    108.49   
    70. A(C   3,C   4,H  35)          110.43  0.000578   -0.19    110.24   
    71. A(H  34,C   4,H  35)          108.24 -0.002026    0.47    108.70   
    72. A(C   3,C   4,H  34)          111.18  0.003106   -0.52    110.66   
    73. A(O   5,C   4,H  34)          107.62 -0.002704    0.50    108.12   
    74. A(O   5,C   4,H  35)          110.68  0.000099   -0.07    110.61   
    75. A(C   4,O   5,P   6)          119.04  0.003912   -0.41    118.62   
    76. A(O   5,P   6,O   9)          104.56  0.005897   -0.86    103.70   
    77. A(O   8,P   6,O   9)          102.33  0.004458   -0.39    101.94   
    78. A(O   5,P   6,O   7)          116.56  0.006311   -0.74    115.83   
    79. A(O   7,P   6,O   9)          113.02 -0.008183    0.95    113.97   
    80. A(O   7,P   6,O   8)          113.65 -0.004241    0.69    114.34   
    81. A(O   5,P   6,O   8)          105.30 -0.003579    0.25    105.55   
    82. A(P   6,O   8,H  36)          111.68  0.001544   -0.18    111.50   
    83. A(P   6,O   9,H  37)          110.16  0.004183   -0.49    109.67   
    84. A(C   3,C  10,C  12)          112.04  0.003136   -0.27    111.77   
    85. A(C   3,C  10,O  11)          112.91 -0.000042   -0.20    112.71   
    86. A(O  11,C  10,H  38)          105.78  0.001055   -0.16    105.62   
    87. A(C   3,C  10,H  38)          108.32  0.000203   -0.12    108.20   
    88. A(C  12,C  10,H  38)          108.00 -0.000995    0.27    108.27   
    89. A(O  11,C  10,C  12)          109.48 -0.003470    0.51    109.99   
    90. A(C  10,O  11,H  39)          108.70  0.000028   -0.00    108.69   
    91. A(C  14,C  12,H  40)          108.26  0.001888   -0.38    107.88   
    92. A(C  10,C  12,C  14)          113.25  0.003092   -0.84    112.41   
    93. A(O  13,C  12,C  14)          112.86  0.001551   -0.58    112.28   
    94. A(O  13,C  12,H  40)          105.59 -0.005254    1.77    107.36   
    95. A(C  10,C  12,H  40)          108.47 -0.001540    0.05    108.52   
    96. A(C  10,C  12,O  13)          108.06 -0.000454    0.19    108.25   
    97. A(C  12,O  13,H  41)          106.44 -0.002537    0.34    106.79   
    98. A(O  15,C  14,C  16)          106.96  0.002098   -0.61    106.35   
    99. A(C  12,C  14,C  16)          116.08 -0.005394    1.54    117.62   
   100. A(C   1,C  14,O  15)          107.02  0.000097   -0.18    106.84   
   101. A(C   1,C  14,C  16)          110.99  0.000658   -0.08    110.91   
   102. A(C  12,C  14,O  15)          107.44  0.002707   -0.83    106.61   
   103. A(C   1,C  14,C  12)          107.95  0.000298    0.01    107.95   
   104. A(C  14,O  15,H  42)          105.10 -0.003495    0.48    105.58   
   105. A(C  14,C  16,C  19)          112.23 -0.011624    1.89    114.12   
   106. A(O  17,C  16,O  18)          106.11 -0.009751    1.93    108.03   
   107. A(C  14,C  16,O  18)          106.84  0.012001   -2.58    104.26   
   108. A(C  14,C  16,O  17)          114.30  0.001114   -0.03    114.27   
   109. A(O  18,C  16,C  19)          109.53  0.002705   -0.88    108.64   
   110. A(O  17,C  16,C  19)          107.61  0.005693   -0.38    107.23   
   111. A(C  16,O  17,H  43)          106.67 -0.001718    0.23    106.90   
   112. A(C  16,O  18,H  44)          104.36 -0.003876    0.52    104.88   
   113. A(C  21,C  19,H  45)          107.31 -0.004299    0.57    107.88   
   114. A(O  20,C  19,H  45)          107.48 -0.000438    0.97    108.46   
   115. A(C  16,C  19,H  45)          109.84 -0.000824    0.16    110.00   
   116. A(O  20,C  19,C  21)          106.82  0.000108   -0.27    106.56   
   117. A(C  16,C  19,C  21)          113.91  0.013422   -2.73    111.18   
   118. A(C  16,C  19,O  20)          111.19 -0.008483    1.45    112.64   
   119. A(C  19,O  20,H  46)          107.63 -0.002186    0.30    107.93   
   120. A(C  23,C  21,H  47)          109.78 -0.000686    0.01    109.79   
   121. A(O  22,C  21,H  47)          104.90  0.001259   -0.04    104.86   
   122. A(C  19,C  21,H  47)          109.73 -0.001829    0.26    109.99   
   123. A(O  22,C  21,C  23)          106.71 -0.004316    0.69    107.40   
   124. A(C  19,C  21,C  23)          114.87  0.005861   -0.81    114.06   
   125. A(C  19,C  21,O  22)          110.35 -0.000722   -0.03    110.32   
   126. A(C  21,O  22,H  48)          106.13 -0.000996    0.14    106.26   
   127. A(O  24,C  23,H  49)          104.46 -0.005327    1.53    105.99   
   128. A(C  25,C  23,H  49)          109.22  0.002349   -0.48    108.74   
   129. A(O  24,C  23,C  25)          108.35  0.002169   -0.61    107.74   
   130. A(C  21,C  23,H  49)          109.94  0.001207   -0.38    109.56   
   131. A(C  21,C  23,C  25)          115.95 -0.002059    0.29    116.24   
   132. A(C  21,C  23,O  24)          108.29  0.001260   -0.21    108.08   
   133. A(C  23,O  24,H  50)          105.03 -0.002721    0.37    105.40   
   134. A(C  27,C  25,H  51)          110.08  0.000021   -0.07    110.01   
   135. A(O  26,C  25,H  51)          106.06  0.001977   -0.32    105.74   
   136. A(O  26,C  25,C  27)          108.15 -0.005327    1.03    109.18   
   137. A(C  23,C  25,C  27)          113.41  0.004340   -0.63    112.78   
   138. A(C  23,C  25,H  51)          110.97 -0.000495   -0.18    110.78   
   139. A(C  23,C  25,O  26)          107.83 -0.000840    0.25    108.08   
   140. A(C  25,O  26,H  52)          105.22 -0.002838    0.38    105.60   
   141. A(H  53,C  27,H  54)          108.32 -0.001602    0.35    108.67   
   142. A(O  28,C  27,H  54)          109.72 -0.000660    0.06    109.78   
   143. A(C  25,C  27,H  54)          111.36  0.001967   -0.33    111.03   
   144. A(O  28,C  27,H  53)          107.06 -0.002181    0.33    107.39   
   145. A(C  25,C  27,O  28)          109.11  0.001196   -0.04    109.07   
   146. A(C  25,C  27,H  53)          111.17  0.001082   -0.34    110.83   
   147. A(C  27,O  28,P  29)          117.08  0.002013   -0.08    117.00   
   148. A(O  31,P  29,O  32)          101.74 -0.003461    0.50    102.24   
   149. A(O  30,P  29,O  32)          115.18 -0.001032    0.13    115.32   
   150. A(O  28,P  29,O  32)          102.61  0.001092   -0.12    102.49   
   151. A(O  30,P  29,O  31)          115.40  0.001362   -0.16    115.24   
   152. A(O  28,P  29,O  31)          103.21 -0.000919    0.05    103.26   
   153. A(O  28,P  29,O  30)          116.66  0.002293   -0.32    116.34   
   154. A(P  29,O  31,H  55)          113.04  0.004159   -0.49    112.55   
   155. A(P  29,O  32,H  56)          111.15  0.000810   -0.09    111.06   
   156. D(C   3,O   2,C   1,O   0)   -162.66  0.005296   -2.26   -164.93   
   157. D(C   3,O   2,C   1,C  14)     17.64  0.000339   -0.19     17.45   
   158. D(C   4,C   3,O   2,C   1)    160.17 -0.002576    0.71    160.87   
   159. D(H  33,C   3,O   2,C   1)    -83.28 -0.002984    0.93    -82.35   
   160. D(C  10,C   3,O   2,C   1)     39.74 -0.002247    0.82     40.56   
   161. D(O   5,C   4,C   3,H  33)    -53.05  0.000391   -0.03    -53.08   
   162. D(H  35,C   4,C   3,C  10)     61.84  0.000025   -0.05     61.79   
   163. D(O   5,C   4,C   3,O   2)     64.20  0.000256    0.05     64.25   
   164. D(H  35,C   4,C   3,O   2)    -57.38 -0.000796    0.37    -57.01   
   165. D(O   5,C   4,C   3,C  10)   -176.59  0.001077   -0.36   -176.95   
   166. D(H  34,C   4,C   3,O   2)   -177.54 -0.000670    0.25   -177.29   
   167. D(H  35,C   4,C   3,H  33)   -174.62 -0.000661    0.29   -174.34   
   168. D(H  34,C   4,C   3,H  33)     65.21 -0.000535    0.16     65.37   
   169. D(H  34,C   4,C   3,C  10)    -58.33  0.000151   -0.17    -58.50   
   170. D(P   6,O   5,C   4,C   3)   -120.54 -0.000407    0.49   -120.05   
   171. D(P   6,O   5,C   4,H  34)    118.97 -0.003064    0.92    119.89   
   172. D(P   6,O   5,C   4,H  35)      0.88  0.000942    0.10      0.98   
   173. D(O   9,P   6,O   5,C   4)    -56.06 -0.001400   -0.47    -56.53   
   174. D(O   8,P   6,O   5,C   4)     51.39  0.004380   -1.13     50.26   
   175. D(O   7,P   6,O   5,C   4)    178.37  0.000304   -0.52    177.85   
   176. D(H  36,O   8,P   6,O   7)    -47.87 -0.003788    0.44    -47.43   
   177. D(H  36,O   8,P   6,O   5)     80.87 -0.001368    0.17     81.04   
   178. D(H  36,O   8,P   6,O   9)   -170.06  0.005501   -0.83   -170.89   
   179. D(H  37,O   9,P   6,O   8)     85.09 -0.002715    0.82     85.91   
   180. D(H  37,O   9,P   6,O   7)    -37.53  0.003890   -0.27    -37.79   
   181. D(H  37,O   9,P   6,O   5)   -165.29 -0.003099    0.68   -164.61   
   182. D(O  11,C  10,C   3,O   2)    178.94  0.002889   -0.97    177.96   
   183. D(O  11,C  10,C   3,C   4)     60.57 -0.000492   -0.06     60.51   
   184. D(C  12,C  10,C   3,C   4)   -175.25 -0.002691    0.24   -175.01   
   185. D(O  11,C  10,C   3,H  33)    -60.23  0.002094   -0.82    -61.06   
   186. D(C  12,C  10,C   3,O   2)    -56.89  0.000690   -0.67    -57.55   
   187. D(H  38,C  10,C   3,C   4)    -56.23 -0.001898    0.33    -55.90   
   188. D(H  38,C  10,C   3,H  33)   -177.04  0.000688   -0.43   -177.46   
   189. D(H  38,C  10,C   3,O   2)     62.13  0.001483   -0.58     61.56   
   190. D(C  12,C  10,C   3,H  33)     63.94 -0.000105   -0.52     63.43   
   191. D(H  39,O  11,C  10,H  38)    175.38  0.000817   -0.13    175.25   
   192. D(H  39,O  11,C  10,C   3)     57.09 -0.000074    0.23     57.32   
   193. D(H  39,O  11,C  10,C  12)    -68.48 -0.001478    0.34    -68.13   
   194. D(H  40,C  12,C  10,O  11)     23.40 -0.002038    0.48     23.89   
   195. D(H  40,C  12,C  10,C   3)   -102.67 -0.001649    0.56   -102.10   
   196. D(C  14,C  12,C  10,H  38)   -101.67  0.000149   -0.28   -101.95   
   197. D(C  14,C  12,C  10,O  11)    143.61  0.001245   -0.50    143.11   
   198. D(C  14,C  12,C  10,C   3)     17.54  0.001634   -0.42     17.12   
   199. D(O  13,C  12,C  10,H  38)     24.12  0.004019   -1.49     22.63   
   200. D(O  13,C  12,C  10,O  11)    -90.61  0.005116   -1.70    -92.31   
   201. D(H  40,C  12,C  10,H  38)    138.13 -0.003135    0.70    138.83   
   202. D(O  13,C  12,C  10,C   3)    143.32  0.005505   -1.63    141.70   
   203. D(H  41,O  13,C  12,H  40)    -61.31  0.001088    0.01    -61.30   
   204. D(H  41,O  13,C  12,C  14)   -179.39  0.001251   -0.32   -179.71   
   205. D(H  41,O  13,C  12,C  10)     54.60 -0.003515    1.03     55.63   
   206. D(O  15,C  14,C  12,H  40)     40.53  0.000947    0.54     41.07   
   207. D(O  15,C  14,C  12,O  13)    157.03 -0.003418    2.14    159.17   
   208. D(O  15,C  14,C  12,C  10)    -79.79 -0.000377    1.27    -78.52   
   209. D(C   1,C  14,C  12,O  13)    -87.87 -0.001789    1.51    -86.36   
   210. D(C   1,C  14,C  12,C  10)     35.31  0.001252    0.65     35.96   
   211. D(C  16,C  14,C   1,O   2)    175.05  0.008404   -2.95    172.11   
   212. D(C  16,C  14,C   1,O   0)     -4.63  0.003195   -0.78     -5.41   
   213. D(C   1,C  14,C  12,H  40)    155.63  0.002575   -0.08    155.55   
   214. D(O  15,C  14,C   1,O   2)     58.68  0.005489   -2.07     56.62   
   215. D(O  15,C  14,C   1,O   0)   -121.00  0.000280    0.10   -120.89   
   216. D(C  16,C  14,C  12,C  10)    160.60 -0.001629    1.69    162.29   
   217. D(C  12,C  14,C   1,O   2)    -56.69  0.002151   -1.02    -57.71   
   218. D(C  12,C  14,C   1,O   0)    123.62 -0.003058    1.15    124.78   
   219. D(C  16,C  14,C  12,H  40)    -79.08 -0.000306    0.96    -78.12   
   220. D(C  16,C  14,C  12,O  13)     37.42 -0.004670    2.56     39.97   
   221. D(H  42,O  15,C  14,C  16)    -43.03 -0.003159    1.32    -41.71   
   222. D(H  42,O  15,C  14,C  12)   -168.31  0.000470    0.33   -167.98   
   223. D(H  42,O  15,C  14,C   1)     75.98 -0.001252    0.82     76.80   
   224. D(C  19,C  16,C  14,O  15)    -74.77 -0.004073    2.68    -72.09   
   225. D(C  19,C  16,C  14,C  12)     45.10 -0.002468    2.14     47.24   
   226. D(C  19,C  16,C  14,C   1)    168.83 -0.005755    3.29    172.12   
   227. D(O  18,C  16,C  14,O  15)     45.29  0.000205    1.04     46.33   
   228. D(O  18,C  16,C  14,C  12)    165.17  0.001811    0.50    165.66   
   229. D(O  18,C  16,C  14,C   1)    -71.11 -0.001476    1.65    -69.46   
   230. D(O  17,C  16,C  14,O  15)    162.34 -0.003279    1.70    164.04   
   231. D(O  17,C  16,C  14,C  12)    -77.79 -0.001674    1.15    -76.63   
   232. D(O  17,C  16,C  14,C   1)     45.94 -0.004961    2.31     48.24   
   233. D(H  43,O  17,C  16,C  19)   -175.43  0.004304   -1.19   -176.62   
   234. D(H  43,O  17,C  16,O  18)     67.40  0.003323   -0.96     66.44   
   235. D(H  43,O  17,C  16,C  14)    -50.07 -0.005660    0.97    -49.10   
   236. D(H  44,O  18,C  16,C  19)    -64.86 -0.002648    0.01    -64.85   
   237. D(H  44,O  18,C  16,O  17)     51.02  0.000137    0.16     51.18   
   238. D(H  44,O  18,C  16,C  14)    173.36  0.002570   -0.21    173.15   
   239. D(H  45,C  19,C  16,O  18)    -87.54 -0.006556    1.30    -86.24   
   240. D(H  45,C  19,C  16,C  14)     30.95  0.002934   -1.31     29.64   
   241. D(C  21,C  19,C  16,O  18)     32.86 -0.003580    0.30     33.16   
   242. D(C  21,C  19,C  16,O  17)    -82.07  0.003461   -1.31    -83.38   
   243. D(C  21,C  19,C  16,C  14)    151.35  0.005909   -2.32    149.03   
   244. D(O  20,C  19,C  16,O  18)    153.62 -0.000178   -0.92    152.70   
   245. D(H  45,C  19,C  16,O  17)    157.54  0.000485   -0.31    157.22   
   246. D(O  20,C  19,C  16,O  17)     38.69  0.006863   -2.53     36.16   
   247. D(O  20,C  19,C  16,C  14)    -87.89  0.009311   -3.53    -91.42   
   248. D(H  46,O  20,C  19,H  45)    -99.02  0.000063   -0.02    -99.04   
   249. D(H  46,O  20,C  19,C  21)    146.08  0.005177   -1.01    145.06   
   250. D(H  46,O  20,C  19,C  16)     21.23 -0.006233    1.64     22.88   
   251. D(H  47,C  21,C  19,H  45)     50.29  0.003691   -1.42     48.86   
   252. D(H  47,C  21,C  19,C  16)    -71.52 -0.000804   -0.28    -71.80   
   253. D(C  23,C  21,C  19,H  45)    -73.94  0.001686   -1.04    -74.98   
   254. D(C  23,C  21,C  19,O  20)     41.09 -0.000826    0.23     41.31   
   255. D(C  23,C  21,C  19,C  16)    164.25 -0.002809    0.10    164.35   
   256. D(O  22,C  21,C  19,H  45)    165.40  0.003745   -1.34    164.06   
   257. D(H  47,C  21,C  19,O  20)    165.31  0.001179   -0.16    165.15   
   258. D(O  22,C  21,C  19,O  20)    -79.58  0.001233   -0.07    -79.65   
   259. D(O  22,C  21,C  19,C  16)     43.59 -0.000749   -0.20     43.39   
   260. D(H  48,O  22,C  21,H  47)    161.44  0.000404   -0.20    161.25   
   261. D(H  48,O  22,C  21,C  23)    -82.11 -0.001713    0.10    -82.00   
   262. D(H  48,O  22,C  21,C  19)     43.33  0.002211   -0.47     42.86   
   263. D(H  49,C  23,C  21,H  47)    165.10 -0.002734    0.88    165.98   
   264. D(H  49,C  23,C  21,O  22)     51.95 -0.001630    0.57     52.51   
   265. D(H  49,C  23,C  21,C  19)    -70.70 -0.001329    0.63    -70.07   
   266. D(C  25,C  23,C  21,H  47)    -70.43 -0.000133    0.13    -70.30   
   267. D(C  25,C  23,C  21,O  22)    176.41  0.000971   -0.18    176.23   
   268. D(C  25,C  23,C  21,C  19)     53.77  0.001272   -0.12     53.65   
   269. D(O  24,C  23,C  21,H  47)     51.55  0.002264   -0.63     50.92   
   270. D(O  24,C  23,C  21,O  22)    -61.61  0.003368   -0.94    -62.55   
   271. D(O  24,C  23,C  21,C  19)    175.75  0.003669   -0.88    174.87   
   272. D(H  50,O  24,C  23,H  49)    -69.96  0.001233   -0.51    -70.47   
   273. D(H  50,O  24,C  23,C  25)    173.70  0.000212   -0.44    173.26   
   274. D(H  50,O  24,C  23,C  21)     47.17  0.000516   -0.27     46.91   
   275. D(H  51,C  25,C  23,C  21)    -60.51  0.000385   -0.11    -60.62   
   276. D(C  27,C  25,C  23,H  49)   -171.15  0.005351   -1.53   -172.68   
   277. D(C  27,C  25,C  23,O  24)    -57.94  0.001419   -0.29    -58.23   
   278. D(C  27,C  25,C  23,C  21)     64.01  0.003333   -0.84     63.17   
   279. D(O  26,C  25,C  23,H  49)    -51.43  0.000787   -0.46    -51.88   
   280. D(O  26,C  25,C  23,O  24)     61.79 -0.003146    0.78     62.57   
   281. D(H  51,C  25,C  23,O  24)    177.54 -0.001529    0.43    177.98   
   282. D(O  26,C  25,C  23,C  21)   -176.26 -0.001232    0.23   -176.03   
   283. D(H  51,C  25,C  23,H  49)     64.32  0.002403   -0.80     63.52   
   284. D(H  52,O  26,C  25,H  51)   -168.61 -0.000406    0.09   -168.52   
   285. D(H  52,O  26,C  25,C  27)     73.33  0.001201   -0.18     73.15   
   286. D(H  52,O  26,C  25,C  23)    -49.68 -0.000368   -0.17    -49.85   
   287. D(H  54,C  27,C  25,H  51)     76.97  0.001702   -0.64     76.34   
   288. D(H  54,C  27,C  25,O  26)   -167.57  0.001082   -0.48   -168.05   
   289. D(H  54,C  27,C  25,C  23)    -48.03 -0.000913    0.14    -47.88   
   290. D(H  53,C  27,C  25,H  51)   -162.14  0.001753   -0.64   -162.78   
   291. D(H  53,C  27,C  25,O  26)    -46.68  0.001133   -0.49    -47.17   
   292. D(H  53,C  27,C  25,C  23)     72.86 -0.000861    0.13     73.00   
   293. D(O  28,C  27,C  25,H  51)    -44.29  0.000465   -0.47    -44.76   
   294. D(O  28,C  27,C  25,O  26)     71.17 -0.000155   -0.32     70.85   
   295. D(O  28,C  27,C  25,C  23)   -169.29 -0.002149    0.30   -168.98   
   296. D(P  29,O  28,C  27,H  54)      2.68  0.000234   -0.49      2.20   
   297. D(P  29,O  28,C  27,H  53)   -114.66  0.003713   -1.12   -115.78   
   298. D(P  29,O  28,C  27,C  25)    124.94  0.003019   -0.88    124.06   
   299. D(O  32,P  29,O  28,C  27)    175.34 -0.002232    0.72    176.05   
   300. D(O  31,P  29,O  28,C  27)     69.87  0.001408    0.20     70.07   
   301. D(O  30,P  29,O  28,C  27)    -57.78 -0.001196    0.59    -57.19   
   302. D(H  55,O  31,P  29,O  32)     67.02 -0.001641    0.57     67.59   
   303. D(H  55,O  31,P  29,O  30)    -58.42  0.001375    0.13    -58.29   
   304. D(H  55,O  31,P  29,O  28)    173.15 -0.001792    0.62    173.76   
[...]
 83:    832.88   0.008687   43.90  0.003255  (-0.015955  0.023411 -0.049521)
 84:    833.55   0.069239  349.91  0.025922  ( 0.036585  0.130042  0.087592)
 85:    862.70   0.004881   24.66  0.001765  (-0.016918 -0.022844 -0.030941)
 86:    883.79   0.052015  262.86  0.018366  ( 0.004549 -0.134648 -0.014679)
 87:    890.33   0.028827  145.68  0.010104  ( 0.020661 -0.098275  0.004363)
 88:    890.49   0.032672  165.11  0.011450  ( 0.080377 -0.058204 -0.040017)
 89:    904.36   0.014902   75.31  0.005142  ( 0.052064 -0.047609 -0.012844)
 90:    918.16   0.049501  250.16  0.016824  ( 0.103466 -0.029227  0.072560)
 91:    919.34   0.015886   80.28  0.005392  (-0.013268  0.012896 -0.071063)
 92:    941.46   0.025832  130.55  0.008563  ( 0.014049 -0.003229  0.091404)
 93:    953.53   0.080424  406.43  0.026321  ( 0.015360  0.028840 -0.158912)
 94:    969.19   0.003852   19.47  0.001240  ( 0.007674 -0.006531  0.033745)
 95:    983.00   0.007605   38.43  0.002414  ( 0.018993 -0.001874 -0.045277)
 96:   1026.98   0.006888   34.81  0.002093  (-0.008137 -0.017710 -0.041392)
 97:   1038.16   0.004969   25.11  0.001494  (-0.016562 -0.013056  0.032389)
 98:   1046.17   0.001680    8.49  0.000501  (-0.011696 -0.017165  0.008354)
 99:   1059.88   0.006197   31.32  0.001825  ( 0.005114  0.001752  0.042371)
100:   1073.37   0.030991  156.62  0.009010  (-0.063726 -0.022847  0.066537)
101:   1078.01   0.012972   65.55  0.003755  (-0.032329 -0.051877 -0.004324)
102:   1082.72   0.020262  102.39  0.005840  ( 0.038083 -0.047651 -0.046031)
103:   1089.21   0.002303   11.64  0.000660  (-0.008846  0.009807  0.022031)
104:   1093.31   0.024920  125.93  0.007113  (-0.072773 -0.035524  0.023558)
105:   1101.03   0.005834   29.48  0.001653  ( 0.006938  0.012036 -0.038215)
106:   1106.72   0.022754  114.99  0.006416  (-0.039856  0.015111  0.067818)
107:   1107.75   0.005505   27.82  0.001551  (-0.006166 -0.008678 -0.037914)
108:   1116.96   0.026081  131.80  0.007287  (-0.009745  0.055386 -0.064220)
109:   1123.84   0.028862  145.85  0.008014  (-0.037692  0.075207  0.030617)
110:   1127.57   0.015836   80.03  0.004383  ( 0.037883 -0.028718 -0.046076)
111:   1133.75   0.037476  189.39  0.010315  ( 0.073703 -0.013652  0.068533)
112:   1140.62   0.006197   31.31  0.001695  (-0.010058  0.038437 -0.010806)
113:   1150.92   0.010887   55.02  0.002952  ( 0.015780 -0.049814  0.014887)
114:   1172.59   0.007731   39.07  0.002057  (-0.039826  0.021497  0.003018)
115:   1193.09   0.003706   18.73  0.000969  ( 0.000170 -0.028688  0.012098)
116:   1197.49   0.021753  109.93  0.005669  ( 0.024629  0.064076  0.030925)
117:   1201.85   0.059581  301.10  0.015470  ( 0.007017  0.091622  0.083825)
118:   1203.00   0.016451   83.14  0.004268  ( 0.028564  0.057518 -0.011972)
119:   1218.78   0.022478  113.60  0.005755  ( 0.065410 -0.037350 -0.009056)
120:   1222.15   0.110387  557.85  0.028186  (-0.164240  0.004037  0.034570)
121:   1231.85   0.015765   79.67  0.003994  ( 0.057311  0.019275  0.018372)
122:   1234.49   0.018293   92.45  0.004624  (-0.004607  0.039435  0.055208)
123:   1236.59   0.000887    4.48  0.000224  ( 0.004944 -0.013901  0.002493)
124:   1244.37   0.000509    2.57  0.000128  ( 0.000790 -0.010010  0.005172)
125:   1252.32   0.010216   51.63  0.002546  ( 0.035924  0.030763 -0.017575)
126:   1263.53   0.002974   15.03  0.000734  (-0.027075  0.001007  0.000545)
127:   1277.76   0.051417  259.84  0.012557  ( 0.006963  0.111740 -0.004799)
128:   1281.51   0.006154   31.10  0.001499  (-0.038008 -0.006786 -0.002804)
129:   1284.31   0.029513  149.15  0.007171  ( 0.023983  0.076503 -0.027262)
130:   1292.49   0.060286  304.66  0.014556  (-0.033365 -0.064484  0.096354)
131:   1296.15   0.010316   52.14  0.002484  (-0.003229  0.024670 -0.043183)
132:   1301.69   0.007280   36.79  0.001745  ( 0.000126  0.017331 -0.038011)
133:   1316.30   0.007388   37.33  0.001751  ( 0.001112  0.041804  0.001626)
134:   1319.34   0.008092   40.89  0.001914  ( 0.032998 -0.012116 -0.026043)
135:   1323.12   0.002277   11.51  0.000537  (-0.015672 -0.012532  0.011592)
136:   1326.49   0.002162   10.93  0.000509  (-0.007672  0.021192  0.000840)
137:   1328.52   0.002195   11.09  0.000516  ( 0.015540 -0.010697 -0.012637)
138:   1332.93   0.011581   58.53  0.002711  (-0.032051  0.005604  0.040653)
139:   1341.46   0.004359   22.03  0.001014  ( 0.016776  0.006020 -0.026389)
140:   1355.59   0.015557   78.62  0.003581  (-0.007292 -0.013689 -0.057800)
141:   1366.66   0.003814   19.28  0.000871  (-0.018297  0.006817  0.022129)
142:   1371.25   0.012740   64.38  0.002899  ( 0.001823  0.049812  0.020367)
143:   1390.34   0.010818   54.67  0.002428  ( 0.008269  0.016932 -0.045531)
144:   1436.05   0.002054   10.38  0.000446  (-0.006707 -0.000691 -0.020023)
145:   1450.21   0.000158    0.80  0.000034  (-0.001389 -0.000724 -0.005613)
146:   1755.33   0.092723  468.58  0.016484  (-0.045566  0.077604  0.091573)
147:   2867.28   0.011035   55.76  0.001201  ( 0.000489  0.028073 -0.020313)
148:   2874.22   0.012695   64.15  0.001378  ( 0.026927 -0.002563  0.025429)
149:   2933.45   0.002104   10.63  0.000224  ( 0.008519 -0.001125 -0.012247)
150:   2945.24   0.000404    2.04  0.000043  (-0.001562 -0.001265 -0.006226)
151:   2948.50   0.000338    1.71  0.000036  ( 0.005620  0.000620 -0.001943)
152:   2956.02   0.006078   30.72  0.000642  (-0.015360  0.019198 -0.006100)
153:   2960.97   0.013857   70.03  0.001460  ( 0.020846  0.012914 -0.029310)
154:   2963.00   0.004115   20.80  0.000433  (-0.001987 -0.003657  0.020398)
155:   2969.07   0.004770   24.11  0.000501  ( 0.004117 -0.003123  0.021788)
156:   2969.53   0.006598   33.34  0.000693  ( 0.008711 -0.003022 -0.024664)
157:   2996.24   0.007583   38.32  0.000790  (-0.013961  0.000182 -0.024389)
158:   3327.99   0.046763  236.32  0.004385  ( 0.057860  0.032203  0.000212)
159:   3350.83   0.073047  369.15  0.006803  ( 0.079902  0.019769  0.005265)
160:   3400.91   0.025136  127.03  0.002306  ( 0.039839 -0.016478 -0.021162)
161:   3449.81   0.020881  105.52  0.001889  (-0.014513 -0.010242 -0.039665)
162:   3458.93   0.008572   43.32  0.000773  ( 0.005393  0.027258 -0.001150)
163:   3473.85   0.034374  173.71  0.003088  ( 0.041542  0.034984  0.011759)
164:   3497.28   0.003617   18.28  0.000323  (-0.014722  0.008247 -0.006167)
165:   3498.97   0.008699   43.96  0.000776  (-0.018115 -0.006118 -0.020255)
166:   3525.88   0.009166   46.32  0.000811  ( 0.007988 -0.008990 -0.025819)
167:   3543.13   0.001343    6.79  0.000118  (-0.007155 -0.001941  0.007958)
168:   3591.83   0.014203   71.77  0.001234  (-0.018292 -0.018770 -0.023389)
169:   3620.83   0.011885   60.06  0.001024  (-0.016259 -0.026106 -0.008856)
170:   3640.30   0.022533  113.87  0.001932  ( 0.038350  0.020670  0.005804)

* The epsilon (eps) is given for a Dirac delta lineshape.
** The dipole moment derivative (T) already includes vibrational overlap.

The first frequency considered to be a vibration is 6
The total number of vibrations considered is 165


--------------------------
THERMOCHEMISTRY AT 298.15K
--------------------------

Temperature         ... 298.15 K
Pressure            ... 1.00 atm
Total Mass          ... 534.25 AMU

Throughout the following assumptions are being made:
  (1) The electronic state is orbitally nondegenerate
  (2) There are no thermally accessible electronically excited states
  (3) Hindered rotations indicated by low frequency modes are not
      treated as such but are treated as vibrations and this may
      cause some error
  (4) All equations used are the standard statistical mechanics
      equations for an ideal gas
  (5) All vibrations are strictly harmonic

freq.       7.10  E(vib)   ...       0.58 
freq.      14.77  E(vib)   ...       0.57 
freq.      24.85  E(vib)   ...       0.56 
freq.      31.03  E(vib)   ...       0.55 
freq.      40.11  E(vib)   ...       0.54 
freq.      43.55  E(vib)   ...       0.53 
freq.      54.33  E(vib)   ...       0.52 
freq.      60.55  E(vib)   ...       0.51 
freq.      68.61  E(vib)   ...       0.50 
freq.      75.91  E(vib)   ...       0.49 
freq.      86.02  E(vib)   ...       0.48 
freq.      95.00  E(vib)   ...       0.47 
freq.     104.48  E(vib)   ...       0.46 
freq.     108.00  E(vib)   ...       0.45 
freq.     120.44  E(vib)   ...       0.44 
freq.     126.89  E(vib)   ...       0.43 
freq.     139.20  E(vib)   ...       0.42 
freq.     144.66  E(vib)   ...       0.41 
freq.     155.24  E(vib)   ...       0.40 
freq.     162.29  E(vib)   ...       0.39 
freq.     171.83  E(vib)   ...       0.38 
freq.     181.28  E(vib)   ...       0.37 
freq.     198.99  E(vib)   ...       0.35 
freq.     201.14  E(vib)   ...       0.35 
freq.     210.01  E(vib)   ...       0.34 
freq.     214.13  E(vib)   ...       0.34 
freq.     228.51  E(vib)   ...       0.32 
freq.     235.45  E(vib)   ...       0.32 
freq.     243.90  E(vib)   ...       0.31 
freq.     252.55  E(vib)   ...       0.30 
freq.     260.35  E(vib)   ...       0.30 
freq.     268.48  E(vib)   ...       0.29 
freq.     275.96  E(vib)   ...       0.28 
freq.     281.90  E(vib)   ...       0.28 
freq.     295.09  E(vib)   ...       0.27 
freq.     304.56  E(vib)   ...       0.26 
freq.     333.95  E(vib)   ...       0.24 
freq.     335.90  E(vib)   ...       0.24 
freq.     343.58  E(vib)   ...       0.23 
freq.     350.62  E(vib)   ...       0.23 
freq.     351.52  E(vib)   ...       0.23 
freq.     358.60  E(vib)   ...       0.22 
freq.     363.55  E(vib)   ...       0.22 
freq.     373.28  E(vib)   ...       0.21 
freq.     377.75  E(vib)   ...       0.21 
freq.     383.54  E(vib)   ...       0.20 
freq.     395.69  E(vib)   ...       0.20 
freq.     403.70  E(vib)   ...       0.19 
freq.     404.81  E(vib)   ...       0.19 
freq.     407.46  E(vib)   ...       0.19 
freq.     418.22  E(vib)   ...       0.18 
freq.     428.32  E(vib)   ...       0.18 
freq.     430.97  E(vib)   ...       0.18 
freq.     446.64  E(vib)   ...       0.17 
freq.     449.81  E(vib)   ...       0.17 
freq.     457.34  E(vib)   ...       0.16 
freq.     460.20  E(vib)   ...       0.16 
freq.     470.30  E(vib)   ...       0.16 
freq.     473.83  E(vib)   ...       0.15 
freq.     478.28  E(vib)   ...       0.15 
freq.     506.15  E(vib)   ...       0.14 
freq.     518.67  E(vib)   ...       0.13 
freq.     531.52  E(vib)   ...       0.13 
freq.     540.04  E(vib)   ...       0.12 
freq.     545.09  E(vib)   ...       0.12 
freq.     556.36  E(vib)   ...       0.12 
freq.     590.19  E(vib)   ...       0.10 
freq.     606.88  E(vib)   ...       0.10 
freq.     629.57  E(vib)   ...       0.09 
freq.     670.87  E(vib)   ...       0.08 
freq.     697.47  E(vib)   ...       0.07 
freq.     715.26  E(vib)   ...       0.07 
freq.     743.23  E(vib)   ...       0.06 
freq.     759.61  E(vib)   ...       0.06 
freq.     762.90  E(vib)   ...       0.06 
freq.     797.07  E(vib)   ...       0.05 
freq.     811.12  E(vib)   ...       0.05 
freq.     832.88  E(vib)   ...       0.04 
freq.     833.55  E(vib)   ...       0.04 
freq.     862.70  E(vib)   ...       0.04 
freq.     883.79  E(vib)   ...       0.04 
freq.     890.33  E(vib)   ...       0.04 
freq.     890.49  E(vib)   ...       0.04 
freq.     904.36  E(vib)   ...       0.03 
freq.     918.16  E(vib)   ...       0.03 
freq.     919.34  E(vib)   ...       0.03 
freq.     941.46  E(vib)   ...       0.03 
freq.     953.53  E(vib)   ...       0.03 
freq.     969.19  E(vib)   ...       0.03 
freq.     983.00  E(vib)   ...       0.02 
freq.    1026.98  E(vib)   ...       0.02 
freq.    1038.16  E(vib)   ...       0.02 
freq.    1046.17  E(vib)   ...       0.02 
freq.    1059.88  E(vib)   ...       0.02 
freq.    1073.37  E(vib)   ...       0.02 
freq.    1078.01  E(vib)   ...       0.02 
freq.    1082.72  E(vib)   ...       0.02 
freq.    1089.21  E(vib)   ...       0.02 
freq.    1093.31  E(vib)   ...       0.02 
freq.    1101.03  E(vib)   ...       0.02 
freq.    1106.72  E(vib)   ...       0.02 
freq.    1107.75  E(vib)   ...       0.02 
freq.    1116.96  E(vib)   ...       0.01 
freq.    1123.84  E(vib)   ...       0.01 
freq.    1127.57  E(vib)   ...       0.01 
freq.    1133.75  E(vib)   ...       0.01 
freq.    1140.62  E(vib)   ...       0.01 
freq.    1150.92  E(vib)   ...       0.01 
freq.    1172.59  E(vib)   ...       0.01 
freq.    1193.09  E(vib)   ...       0.01 
freq.    1197.49  E(vib)   ...       0.01 
freq.    1201.85  E(vib)   ...       0.01 
freq.    1203.00  E(vib)   ...       0.01 
freq.    1218.78  E(vib)   ...       0.01 
freq.    1222.15  E(vib)   ...       0.01 
freq.    1231.85  E(vib)   ...       0.01 
freq.    1234.49  E(vib)   ...       0.01 
freq.    1236.59  E(vib)   ...       0.01 
freq.    1244.37  E(vib)   ...       0.01 
freq.    1252.32  E(vib)   ...       0.01 
freq.    1263.53  E(vib)   ...       0.01 
freq.    1277.76  E(vib)   ...       0.01 
freq.    1281.51  E(vib)   ...       0.01 
freq.    1284.31  E(vib)   ...       0.01 
freq.    1292.49  E(vib)   ...       0.01 
freq.    1296.15  E(vib)   ...       0.01 
freq.    1301.69  E(vib)   ...       0.01 
freq.    1316.30  E(vib)   ...       0.01 
freq.    1319.34  E(vib)   ...       0.01 
freq.    1323.12  E(vib)   ...       0.01 
freq.    1326.49  E(vib)   ...       0.01 
freq.    1328.52  E(vib)   ...       0.01 
freq.    1332.93  E(vib)   ...       0.01 
freq.    1341.46  E(vib)   ...       0.01 
freq.    1355.59  E(vib)   ...       0.01 
freq.    1366.66  E(vib)   ...       0.01 
freq.    1371.25  E(vib)   ...       0.01 
freq.    1390.34  E(vib)   ...       0.00 
freq.    1436.05  E(vib)   ...       0.00 
freq.    1450.21  E(vib)   ...       0.00 
freq.    1755.33  E(vib)   ...       0.00 
freq.    2867.28  E(vib)   ...       0.00 
freq.    2874.22  E(vib)   ...       0.00 
freq.    2933.45  E(vib)   ...       0.00 
freq.    2945.24  E(vib)   ...       0.00 
freq.    2948.50  E(vib)   ...       0.00 
freq.    2956.02  E(vib)   ...       0.00 
freq.    2960.97  E(vib)   ...       0.00 
freq.    2963.00  E(vib)   ...       0.00 
freq.    2969.07  E(vib)   ...       0.00 
freq.    2969.53  E(vib)   ...       0.00 
freq.    2996.24  E(vib)   ...       0.00 
freq.    3327.99  E(vib)   ...       0.00 
freq.    3350.83  E(vib)   ...       0.00 
freq.    3400.91  E(vib)   ...       0.00 
freq.    3449.81  E(vib)   ...       0.00 
freq.    3458.93  E(vib)   ...       0.00 
freq.    3473.85  E(vib)   ...       0.00 
freq.    3497.28  E(vib)   ...       0.00 
freq.    3498.97  E(vib)   ...       0.00 
freq.    3525.88  E(vib)   ...       0.00 
freq.    3543.13  E(vib)   ...       0.00 
freq.    3591.83  E(vib)   ...       0.00 
freq.    3620.83  E(vib)   ...       0.00 
freq.    3640.30  E(vib)   ...       0.00 

------------
INNER ENERGY
------------

The inner energy is: U= E(el) + E(ZPE) + E(vib) + E(rot) + E(trans)
    E(el)   - is the total energy from the electronic structure calculation
              = E(kin-el) + E(nuc-el) + E(el-el) + E(nuc-nuc)
    E(ZPE)  - the the zero temperature vibrational energy from the frequency calculation
    E(vib)  - the the finite temperature correction to E(ZPE) due to population
              of excited vibrational states
    E(rot)  - is the rotational thermal energy
    E(trans)- is the translational thermal energy

Summary of contributions to the inner energy U:
Electronic energy                ...   -120.57895938 Eh
Zero point energy                ...      0.40649441 Eh     255.08 kcal/mol
Thermal vibrational correction   ...      0.03489432 Eh      21.90 kcal/mol
Thermal rotational correction    ...      0.00141627 Eh       0.89 kcal/mol
Thermal translational correction ...      0.00141627 Eh       0.89 kcal/mol
-----------------------------------------------------------------------
Total thermal energy                   -120.13473811 Eh


Summary of corrections to the electronic energy:
(perhaps to be used in another calculation)
Total thermal correction                  0.03772686 Eh      23.67 kcal/mol
Non-thermal (ZPE) correction              0.40649441 Eh     255.08 kcal/mol
-----------------------------------------------------------------------
Total correction                          0.44422127 Eh     278.75 kcal/mol


--------
ENTHALPY
--------

The enthalpy is H = U + kB*T
                kB is Boltzmann's constant
Total free energy                 ...   -120.13473811 Eh 
Thermal Enthalpy correction       ...      0.00094421 Eh       0.59 kcal/mol
-----------------------------------------------------------------------
Total Enthalpy                    ...   -120.13379390 Eh


Note: Only C1 symmetry has been detected, increase convergence thresholds 
      if your molecule has a higher symmetry. Symmetry factor of 1.0 is   
      used for the rotational entropy correction. 
 

Note: Rotational entropy computed according to Herzberg 
Infrared and Raman Spectra, Chapter V,1, Van Nostrand Reinhold, 1945 
Point Group:  C1, Symmetry Number:   1  
Rotational constants in cm-1:     0.006996     0.002115     0.001777 

Vibrational entropy computed according to the QRRHO of S. Grimme
Chem.Eur.J. 2012 18 9955


-------
ENTROPY
-------

The entropy contributions are T*S = T*(S(el)+S(vib)+S(rot)+S(trans))
     S(el)   - electronic entropy
     S(vib)  - vibrational entropy
     S(rot)  - rotational entropy
     S(trans)- translational entropy
The entropies will be listed as multiplied by the temperature to get
units of energy

Electronic entropy                ...      0.00000000 Eh      0.00 kcal/mol
Vibrational entropy               ...      0.06287950 Eh     39.46 kcal/mol
Rotational entropy                ...      0.01775075 Eh     11.14 kcal/mol
Translational entropy             ...      0.02124449 Eh     13.33 kcal/mol
-----------------------------------------------------------------------
Final entropy term                ...      0.10187474 Eh     63.93 kcal/mol

In case the symmetry of your molecule has not been determined correctly
or in case you have a reason to use a different symmetry number we print 
out the resulting rotational entropy values for sn=1,12 :
 --------------------------------------------------------
|  sn= 1 | S(rot)=       0.01775075 Eh     11.14 kcal/mol|
|  sn= 2 | S(rot)=       0.01709630 Eh     10.73 kcal/mol|
|  sn= 3 | S(rot)=       0.01671346 Eh     10.49 kcal/mol|
|  sn= 4 | S(rot)=       0.01644184 Eh     10.32 kcal/mol|
|  sn= 5 | S(rot)=       0.01623115 Eh     10.19 kcal/mol|
|  sn= 6 | S(rot)=       0.01605901 Eh     10.08 kcal/mol|
|  sn= 7 | S(rot)=       0.01591346 Eh      9.99 kcal/mol|
|  sn= 8 | S(rot)=       0.01578738 Eh      9.91 kcal/mol|
|  sn= 9 | S(rot)=       0.01567618 Eh      9.84 kcal/mol|
|  sn=10 | S(rot)=       0.01557670 Eh      9.77 kcal/mol|
|  sn=11 | S(rot)=       0.01548671 Eh      9.72 kcal/mol|
|  sn=12 | S(rot)=       0.01540455 Eh      9.67 kcal/mol|
 --------------------------------------------------------


-------------------
GIBBS FREE ENERGY
-------------------

The Gibbs free energy is G = H - T*S

Total enthalpy                    ...   -120.13379390 Eh 
Total entropy correction          ...     -0.10187474 Eh    -63.93 kcal/mol
-----------------------------------------------------------------------
Final Gibbs free energy         ...   -120.23566864 Eh

For completeness - the Gibbs free energy minus the electronic energy
G-E(el)                           ...      0.34329075 Eh    215.42 kcal/mol



Timings for individual modules:

Sum of individual times         ...      887.128 sec (=  14.785 min)
Geometry relaxation             ...        9.817 sec (=   0.164 min)   1.1 %
Numerical frequency calculation ...      870.586 sec (=  14.510 min)  98.1 %
XTB module                      ...        6.725 sec (=   0.112 min)   0.8 %
                             ****ORCA TERMINATED NORMALLY****
TOTAL RUN TIME: 0 days 0 hours 14 minutes 54 seconds 148 msec
