
                                 *****************
                                 * O   R   C   A *
                                 *****************

                                            #,                                       
                                            ###                                      
                                            ####                                     
                                            #####                                    
                                            ######                                   
                                           ########,                                 
                                     ,,################,,,,,                         
                               ,,#################################,,                 
                          ,,##########################################,,             
                       ,#########################################, ''#####,          
                    ,#############################################,,   '####,        
                  ,##################################################,,,,####,       
                ,###########''''           ''''###############################       
              ,#####''   ,,,,##########,,,,          '''####'''          '####       
            ,##' ,,,,###########################,,,                        '##       
           ' ,,###''''                  '''############,,,                           
         ,,##''                                '''############,,,,        ,,,,,,###''
      ,#''                                            '''#######################'''  
     '                                                          ''''####''''         
             ,#######,   #######,   ,#######,      ##                                
            ,#'     '#,  ##    ##  ,#'     '#,    #''#        ######   ,####,        
            ##       ##  ##   ,#'  ##            #'  '#       #        #'  '#        
            ##       ##  #######   ##           ,######,      #####,   #    #        
            '#,     ,#'  ##    ##  '#,     ,#' ,#      #,         ##   #,  ,#        
             '#######'   ##     ##  '#######'  #'      '#     #####' # '####'        



                  #######################################################
                  #                        -***-                        #
                  #          Department of theory and spectroscopy      #
                  #    Directorship and core code : Frank Neese         #
                  #        Max Planck Institute fuer Kohlenforschung    #
                  #                Kaiser Wilhelm Platz 1               #
                  #                 D-45470 Muelheim/Ruhr               #
                  #                      Germany                        #
                  #                                                     #
                  #                  All rights reserved                #
                  #                        -***-                        #
                  #######################################################


                         Program Version 5.0.3 -  RELEASE  -


 With contributions from (in alphabetic order):
   Daniel Aravena         : Magnetic Suceptibility
   Michael Atanasov       : Ab Initio Ligand Field Theory (pilot matlab implementation)
   Alexander A. Auer      : GIAO ZORA, VPT2 properties, NMR spectrum
   Ute Becker             : Parallelization
   Giovanni Bistoni       : ED, misc. LED, open-shell LED, HFLD
   Martin Brehm           : Molecular dynamics
   Dmytro Bykov           : SCF Hessian
   Vijay G. Chilkuri      : MRCI spin determinant printing, contributions to CSF-ICE
   Dipayan Datta          : RHF DLPNO-CCSD density
   Achintya Kumar Dutta   : EOM-CC, STEOM-CC
   Dmitry Ganyushin       : Spin-Orbit,Spin-Spin,Magnetic field MRCI
   Miquel Garcia          : C-PCM and meta-GGA Hessian, CC/C-PCM, Gaussian charge scheme
   Yang Guo               : DLPNO-NEVPT2, F12-NEVPT2, CIM, IAO-localization
   Andreas Hansen         : Spin unrestricted coupled pair/coupled cluster methods
   Benjamin Helmich-Paris : MC-RPA, TRAH-SCF, COSX integrals
   Lee Huntington         : MR-EOM, pCC
   Robert Izsak           : Overlap fitted RIJCOSX, COSX-SCS-MP3, EOM
   Marcus Kettner         : VPT2
   Christian Kollmar      : KDIIS, OOCD, Brueckner-CCSD(T), CCSD density, CASPT2, CASPT2-K
   Simone Kossmann        : Meta GGA functionals, TD-DFT gradient, OOMP2, MP2 Hessian
   Martin Krupicka        : Initial AUTO-CI
   Lucas Lang             : DCDCAS
   Marvin Lechner         : AUTO-CI (C++ implementation), FIC-MRCC
   Dagmar Lenk            : GEPOL surface, SMD
   Dimitrios Liakos       : Extrapolation schemes; Compound Job, initial MDCI parallelization
   Dimitrios Manganas     : Further ROCIS development; embedding schemes
   Dimitrios Pantazis     : SARC Basis sets
   Anastasios Papadopoulos: AUTO-CI, single reference methods and gradients
   Taras Petrenko         : DFT Hessian,TD-DFT gradient, ASA, ECA, R-Raman, ABS, FL, XAS/XES, NRVS
   Peter Pinski           : DLPNO-MP2, DLPNO-MP2 Gradient
   Christoph Reimann      : Effective Core Potentials
   Marius Retegan         : Local ZFS, SOC
   Christoph Riplinger    : Optimizer, TS searches, QM/MM, DLPNO-CCSD(T), (RO)-DLPNO pert. Triples
   Tobias Risthaus        : Range-separated hybrids, TD-DFT gradient, RPA, STAB
   Michael Roemelt        : Original ROCIS implementation
   Masaaki Saitow         : Open-shell DLPNO-CCSD energy and density
   Barbara Sandhoefer     : DKH picture change effects
   Avijit Sen             : IP-ROCIS
   Kantharuban Sivalingam : CASSCF convergence, NEVPT2, FIC-MRCI
   Bernardo de Souza      : ESD, SOC TD-DFT
   Georgi Stoychev        : AutoAux, RI-MP2 NMR, DLPNO-MP2 response
   Willem Van den Heuvel  : Paramagnetic NMR
   Boris Wezisla          : Elementary symmetry handling
   Frank Wennmohs         : Technical directorship


 We gratefully acknowledge several colleagues who have allowed us to
 interface, adapt or use parts of their codes:
   Stefan Grimme, W. Hujo, H. Kruse, P. Pracht,  : VdW corrections, initial TS optimization,
                  C. Bannwarth, S. Ehlert          DFT functionals, gCP, sTDA/sTD-DF
   Ed Valeev, F. Pavosevic, A. Kumar             : LibInt (2-el integral package), F12 methods
   Garnet Chan, S. Sharma, J. Yang, R. Olivares  : DMRG
   Ulf Ekstrom                                   : XCFun DFT Library
   Mihaly Kallay                                 : mrcc  (arbitrary order and MRCC methods)
   Jiri Pittner, Ondrej Demel                    : Mk-CCSD
   Frank Weinhold                                : gennbo (NPA and NBO analysis)
   Christopher J. Cramer and Donald G. Truhlar   : smd solvation model
   Lars Goerigk                                  : TD-DFT with DH, B97 family of functionals
   V. Asgeirsson, H. Jonsson                     : NEB implementation
   FAccTs GmbH                                   : IRC, NEB, NEB-TS, DLPNO-Multilevel, CI-OPT
                                                   MM, QMMM, 2- and 3-layer-ONIOM, Crystal-QMMM,
                                                   LR-CPCM, SF, NACMEs, symmetry and pop. for TD-DFT,
                                                   nearIR, NL-DFT gradient (VV10), updates on ESD,
                                                   ML-optimized integration grids
   S Lehtola, MJT Oliveira, MAL Marques          : LibXC Library
   Liviu Ungur et al                             : ANISO software


 Your calculation uses the libint2 library for the computation of 2-el integrals
 For citations please refer to: http://libint.valeyev.net

 Your ORCA version has been built with support for libXC version: 5.1.0
 For citations please refer to: https://tddft.org/programs/libxc/

 This ORCA versions uses:
   CBLAS   interface :  Fast vector & matrix operations
   LAPACKE interface :  Fast linear algebra routines
   SCALAPACK package :  Parallel linear algebra routines
   Shared memory     :  Shared parallel matrices
   BLAS/LAPACK       :  OpenBLAS 0.3.15  USE64BITINT DYNAMIC_ARCH NO_AFFINITY Haswell SINGLE_THREADED
        Core in use  :  Haswell
   Copyright (c) 2011-2014, The OpenBLAS Project


Your calculation utilizes the semiempirical GFN2-xTB method
Please cite in your paper:
C. Bannwarth, Ehlert S., S. Grimme,  J. Chem. Theory Comput., 15, (2019), 1652.
   

================================================================================

================================================================================
                                        WARNINGS
                       Please study these warnings very carefully!
================================================================================


WARNING: Geometry Optimization
  ===> : Switching off AutoStart
         For restart on a previous wavefunction, please use MOREAD

WARNING: Found dipole moment calculation with XTB calculation
  ===> : Switching off dipole moment calculation


WARNING: TRAH-SCF for XTB is not implemented!
  ===> : Turning TRAH off!

================================================================================
                                       INPUT FILE
================================================================================
NAME = /tmp/17.inp
|  1> ! XTB2 opt numfreq
|  2> * XYZ 0 1
|  3> O -0.7385 -2.0892 -1.2411
|  4> C -0.6858 -1.1507 -0.4332
|  5> C -1.8816 -0.8424 0.4431
|  6> C -2.9329 -0.0978 -0.3870
|  7> O -2.3701 1.1768 -0.7574
|  8> C -4.2463 0.1882 0.3678
|  9> O -3.9165 0.9321 1.5516
| 10> C -5.0457 -1.0685 0.7308
| 11> O -6.2131 -0.8325 1.4994
| 12> P -7.2719 0.3008 1.1224
| 13> O -8.6110 0.2095 1.7667
| 14> O -7.3360 0.3000 -0.4722
| 15> O -6.5208 1.6853 1.4627
| 16> C 0.5697 -0.2262 -0.3502
| 17> O 0.1499 1.0921 -0.0756
| 18> O 1.1985 -0.1968 -1.6184
| 19> C 1.5341 -0.7253 0.7746
| 20> O 0.7506 -1.1147 1.9360
| 21> C 2.4265 0.4331 1.2279
| 22> O 2.1494 1.1081 2.2218
| 23> O 3.5260 0.7080 0.4916
| 24> C 4.3311 -0.3608 -0.0617
| 25> C 5.1688 0.2301 -1.2003
| 26> O 6.0423 1.2212 -0.6894
| 27> P 5.5566 2.7491 -0.7565
| 28> O 4.2090 3.0503 -1.3263
| 29> O 6.7890 3.4979 -1.4510
| 30> O 5.7239 3.2526 0.7590
| 31> C 3.5337 -1.5683 -0.5458
| 32> O 4.4033 -2.7041 -0.6856
| 33> C 2.4519 -1.9129 0.4706
| 34> O 1.7515 -3.0818 0.0010
| 35> H -1.5611 -0.2564 1.3095
| 36> H -2.2647 -1.8003 0.8133
| 37> H -3.1469 -0.6330 -1.3212
| 38> H -2.5486 1.7691 0.0107
| 39> H -4.8442 0.8621 -0.2610
| 40> H -4.7478 1.3843 1.8165
| 41> H -4.4323 -1.7456 1.3370
| 42> H -5.3390 -1.6104 -0.1788
| 43> H -8.1057 -0.2245 -0.8034
| 44> H -7.1657 2.4205 1.4723
| 45> H -0.5048 1.3239 -0.7716
| 46> H 0.7696 -0.8800 -2.1543
| 47> H 0.6366 -0.2999 2.4622
| 48> H 5.0238 -0.6656 0.7391
| 49> H 4.5317 0.6571 -1.9902
| 50> H 5.7745 -0.5477 -1.6723
| 51> H 7.5715 3.5000 -0.8868
| 52> H 4.9275 2.9915 1.2683
| 53> H 3.1112 -1.3999 -1.5410
| 54> H 3.8064 -3.4681 -0.8389
| 55> H 2.9452 -2.2450 1.4023
| 56> H 1.0674 -3.2952 0.6696
| 57> *
| 58> 
| 59>                          ****END OF INPUT****
================================================================================

                       *****************************
                       * Geometry Optimization Run *
                       *****************************

Geometry optimization settings:
Update method            Update   .... BFGS
Choice of coordinates    CoordSys .... Z-matrix Internals
Initial Hessian          InHess   .... Almoef's Model

Convergence Tolerances:
Energy Change            TolE     ....  5.0000e-06 Eh
Max. Gradient            TolMAXG  ....  3.0000e-04 Eh/bohr
RMS Gradient             TolRMSG  ....  1.0000e-04 Eh/bohr
Max. Displacement        TolMAXD  ....  4.0000e-03 bohr
RMS Displacement         TolRMSD  ....  2.0000e-03 bohr
Strict Convergence                ....  False
------------------------------------------------------------------------------
                        ORCA OPTIMIZATION COORDINATE SETUP
------------------------------------------------------------------------------

The optimization will be done in new redundant internal coordinates
Making redundant internal coordinates   ...  (new redundants) done
Evaluating the initial hessian          ...  (Almloef) done
Evaluating the coordinates              ...  done
Calculating the B-matrix                .... done
Calculating the G-matrix                .... done
Diagonalizing the G-matrix              .... done
Small eigenvalue found = 1.491e-03
Small eigenvalue found = 2.092e-03
Small eigenvalue found = 4.455e-03
Small eigenvalue found = 6.238e-03
Small eigenvalue found = 8.650e-03
Small eigenvalue found = 1.173e-02
Small eigenvalue found = 1.479e-02
Small eigenvalue found = 1.737e-02
Small eigenvalue found = 2.494e-02
Small eigenvalue found = 2.962e-02
The first mode is                       ....  130
The number of degrees of freedom        ....  156

    -----------------------------------------------------------------
                    Redundant Internal Coordinates


    -----------------------------------------------------------------
         Definition                    Initial Value    Approx d2E/dq
    -----------------------------------------------------------------
      1. B(C   1,O   0)                  1.2395         0.972863   
      2. B(C   2,C   1)                  1.5142         0.395858   
      3. B(C   3,C   2)                  1.5326         0.370084   
      4. B(O   4,C   3)                  1.4417         0.462771   
      5. B(C   5,C   3)                  1.5416         0.357986   
      6. B(O   6,C   5)                  1.4365         0.471720   
      7. B(C   7,C   5)                  1.5330         0.369473   
      8. B(O   8,C   7)                  1.4175         0.505853   
      9. B(P   9,O   8)                  1.5961         0.882145   
     10. B(O  10,P   9)                  1.4888         1.308203   
     11. B(O  11,P   9)                  1.5959         0.882853   
     12. B(O  12,P   9)                  1.6115         0.833773   
     13. B(C  13,C   1)                  1.5614         0.332914   
     14. B(O  14,C  13)                  1.4105         0.518974   
     15. B(O  15,C  13)                  1.4158         0.508932   
     16. B(C  16,C  13)                  1.5634         0.330390   
     17. B(O  17,C  16)                  1.4541         0.442218   
     18. B(C  18,C  16)                  1.5309         0.372299   
     19. B(O  19,C  18)                  1.2330         0.996291   
     20. B(O  20,C  18)                  1.3515         0.644565   
     21. B(C  21,O  20)                  1.4480         0.452235   
     22. B(C  22,C  21)                  1.5321         0.370711   
     23. B(O  23,C  22)                  1.4164         0.507801   
     24. B(P  24,O  23)                  1.6046         0.854904   
     25. B(O  25,P  24)                  1.4938         1.284616   
     26. B(O  26,P  24)                  1.6006         0.867780   
     27. B(O  27,P  24)                  1.6057         0.851626   
     28. B(C  28,C  21)                  1.5259         0.379297   
     29. B(O  29,C  28)                  1.4373         0.470364   
     30. B(C  30,C  28)                  1.5238         0.382115   
     31. B(C  30,C  16)                  1.5314         0.371667   
     32. B(O  31,C  30)                  1.4413         0.463440   
     33. B(H  32,C   2)                  1.0940         0.354889   
     34. B(H  33,C   2)                  1.0961         0.352149   
     35. B(H  34,C   3)                  1.0977         0.350045   
     36. B(H  35,O   4)                  0.9862         0.472183   
     37. B(H  36,C   5)                  1.0986         0.348847   
     38. B(H  37,O   6)                  0.9827         0.478340   
     39. B(H  38,C   7)                  1.0964         0.351668   
     40. B(H  39,C   7)                  1.0987         0.348825   
     41. B(H  40,O  11)                  0.9886         0.468184   
     42. B(H  41,O  12)                  0.9780         0.486665   
     43. B(H  42,O  14)                  0.9832         0.477391   
     44. B(H  43,O  15)                  0.9685         0.504053   
     45. B(H  44,O  17)                  0.9766         0.489164   
     46. B(H  45,C  21)                  1.1018         0.344793   
     47. B(H  46,C  22)                  1.1010         0.345858   
     48. B(H  47,C  22)                  1.0930         0.356165   
     49. B(H  48,O  26)                  0.9647         0.511069   
     50. B(H  49,O  27)                  0.9807         0.481846   
     51. B(H  50,C  28)                  1.0942         0.354578   
     52. B(H  51,O  29)                  0.9816         0.480339   
     53. B(H  52,C  30)                  1.1053         0.340411   
     54. B(H  53,O  31)                  0.9801         0.482980   
     55. A(O   0,C   1,C   2)          119.8545         0.431371   
     56. A(O   0,C   1,C  13)          121.1429         0.418211   
     57. A(C   2,C   1,C  13)          118.9266         0.359817   
     58. A(C   3,C   2,H  32)          111.6963         0.323046   
     59. A(H  32,C   2,H  33)          107.6405         0.289161   
     60. A(C   1,C   2,H  32)          109.6351         0.326640   
     61. A(C   3,C   2,H  33)          111.5790         0.322636   
     62. A(C   1,C   2,C   3)          109.0983         0.366383   
     63. A(C   1,C   2,H  33)          107.0702         0.326223   
     64. A(C   5,C   3,H  34)          109.9408         0.320570   
     65. A(C   2,C   3,O   4)          107.5123         0.373999   
     66. A(O   4,C   3,H  34)          106.7682         0.332406   
     67. A(C   2,C   3,C   5)          114.1652         0.360141   
     68. A(O   4,C   3,C   5)          107.1190         0.371863   
     69. A(C   2,C   3,H  34)          110.9659         0.322319   
     70. A(C   3,O   4,H  35)          105.0824         0.346431   
     71. A(C   3,C   5,C   7)          114.0869         0.360039   
     72. A(O   6,C   5,C   7)          110.4324         0.375130   
     73. A(C   3,C   5,O   6)          107.6957         0.373092   
     74. A(C   3,C   5,H  36)          107.2909         0.320391   
     75. A(C   7,C   5,H  36)          110.7674         0.322051   
     76. A(O   6,C   5,H  36)          106.1978         0.333274   
     77. A(C   5,O   6,H  37)          105.4396         0.348309   
     78. A(C   5,C   7,H  39)          110.3348         0.322048   
     79. A(H  38,C   7,H  39)          107.6073         0.288320   
     80. A(C   5,C   7,H  38)          110.2077         0.322476   
     81. A(O   8,C   7,H  39)          108.1303         0.337163   
     82. A(O   8,C   7,H  38)          105.2939         0.337620   
     83. A(C   5,C   7,O   8)          114.9211         0.379690   
     84. A(C   7,O   8,P   9)          122.4436         0.470453   
     85. A(O  10,P   9,O  12)          112.3660         0.596398   
     86. A(O   8,P   9,O  12)          104.5346         0.553103   
     87. A(O  10,P   9,O  11)          113.3438         0.603010   
     88. A(O   8,P   9,O  11)          105.2064         0.559151   
     89. A(O   8,P   9,O  10)          116.8007         0.602916   
     90. A(O  11,P   9,O  12)          103.3063         0.553188   
     91. A(P   9,O  11,H  40)          111.4879         0.412125   
     92. A(P   9,O  12,H  41)          109.9124         0.410777   
     93. A(C   1,C  13,O  15)          108.7717         0.373305   
     94. A(C   1,C  13,C  16)          110.1959         0.348959   
     95. A(O  15,C  13,C  16)          112.1540         0.372816   
     96. A(O  14,C  13,C  16)          109.9919         0.374074   
     97. A(O  14,C  13,O  15)          106.6876         0.400772   
     98. A(C   1,C  13,O  14)          108.9310         0.374565   
     99. A(C  13,O  14,H  42)          106.3022         0.353854   
    100. A(C  13,O  15,H  43)          106.5181         0.355949   
    101. A(O  17,C  16,C  18)          106.2738         0.371465   
    102. A(C  13,C  16,C  18)          109.3318         0.355622   
    103. A(C  13,C  16,O  17)          109.1319         0.363932   
    104. A(C  18,C  16,C  30)          107.2307         0.362822   
    105. A(O  17,C  16,C  30)          105.8911         0.371356   
    106. A(C  13,C  16,C  30)          118.3227         0.355519   
    107. A(C  16,O  17,H  44)          105.6535         0.345844   
    108. A(O  19,C  18,O  20)          120.7061         0.470214   
    109. A(C  16,C  18,O  20)          117.8275         0.396609   
    110. A(C  16,C  18,O  19)          121.4607         0.428472   
    111. A(C  18,O  20,C  21)          120.6886         0.407809   
    112. A(O  20,C  21,C  28)          114.5059         0.374099   
    113. A(C  22,C  21,C  28)          110.8037         0.363818   
    114. A(C  28,C  21,H  45)          109.8900         0.322820   
    115. A(C  22,C  21,H  45)          107.6425         0.321611   
    116. A(O  20,C  21,H  45)          106.0232         0.330313   
    117. A(O  20,C  21,C  22)          107.6562         0.372626   
    118. A(H  46,C  22,H  47)          106.6691         0.288508   
    119. A(C  21,C  22,H  47)          110.4550         0.323326   
    120. A(O  23,C  22,H  47)          108.1766         0.338553   
    121. A(O  23,C  22,H  46)          110.1367         0.336900   
    122. A(C  21,C  22,H  46)          111.4919         0.321774   
    123. A(C  21,C  22,O  23)          109.8157         0.380163   
    124. A(C  22,O  23,P  24)          117.6781         0.468084   
    125. A(O  26,P  24,O  27)          100.5218         0.553605   
    126. A(O  25,P  24,O  27)          113.0035         0.596742   
    127. A(O  23,P  24,O  27)          103.1541         0.552035   
    128. A(O  25,P  24,O  26)          115.7710         0.598906   
    129. A(O  23,P  24,O  26)          103.3290         0.554009   
    130. A(O  23,P  24,O  25)          118.7509         0.597184   
    131. A(P  24,O  26,H  48)          111.8269         0.417317   
    132. A(P  24,O  27,H  49)          108.7869         0.411596   
    133. A(O  29,C  28,C  30)          108.4026         0.377129   
    134. A(C  21,C  28,C  30)          109.7755         0.365709   
    135. A(C  30,C  28,H  50)          111.5512         0.324700   
    136. A(O  29,C  28,H  50)          105.4722         0.334017   
    137. A(C  21,C  28,O  29)          109.8792         0.376647   
    138. A(C  21,C  28,H  50)          111.6262         0.324305   
    139. A(C  28,O  29,H  51)          105.2093         0.348385   
    140. A(C  28,C  30,O  31)          108.1230         0.376164   
    141. A(C  16,C  30,O  31)          113.7262         0.374367   
    142. A(C  16,C  30,C  28)          112.4889         0.364439   
    143. A(O  31,C  30,H  52)          104.3500         0.330952   
    144. A(C  28,C  30,H  52)          108.2608         0.322535   
    145. A(C  16,C  30,H  52)          109.4603         0.321074   
    146. A(C  30,O  31,H  53)          107.0681         0.347837   
    147. D(H  33,C   2,C   1,C  13)   -139.7493         0.011641   
    148. D(H  32,C   2,C   1,C  13)    -23.2533         0.011641   
    149. D(H  32,C   2,C   1,O   0)    159.8785         0.011641   
    150. D(C   3,C   2,C   1,O   0)    -77.5123         0.011641   
    151. D(C   3,C   2,C   1,C  13)     99.3559         0.011641   
    152. D(H  33,C   2,C   1,O   0)     43.3825         0.011641   
    153. D(O   4,C   3,C   2,C   1)    -65.3809         0.010948   
    154. D(H  34,C   3,C   2,H  32)    172.3989         0.010948   
    155. D(H  34,C   3,C   2,C   1)     51.0347         0.010948   
    156. D(C   5,C   3,C   2,C   1)    175.9412         0.010948   
    157. D(C   5,C   3,C   2,H  33)     57.8422         0.010948   
    158. D(O   4,C   3,C   2,H  33)    176.5202         0.010948   
    159. D(H  34,C   3,C   2,H  33)    -67.0643         0.010948   
    160. D(O   4,C   3,C   2,H  32)     55.9833         0.010948   
    161. D(C   5,C   3,C   2,H  32)    -62.6946         0.010948   
    162. D(H  35,O   4,C   3,C   2)    -84.7535         0.016873   
    163. D(H  35,O   4,C   3,H  34)    156.1069         0.016873   
    164. D(H  35,O   4,C   3,C   5)     38.3635         0.016873   
    165. D(C   7,C   5,C   3,O   4)    174.8824         0.010290   
    166. D(H  36,C   5,C   3,O   4)     51.7936         0.010290   
    167. D(C   7,C   5,C   3,H  34)     59.2324         0.010290   
    168. D(H  36,C   5,C   3,C   2)    170.6947         0.010290   
    169. D(O   6,C   5,C   3,O   4)    -62.1595         0.010290   
    170. D(C   7,C   5,C   3,C   2)    -66.2165         0.010290   
    171. D(O   6,C   5,C   3,H  34)   -177.8094         0.010290   
    172. D(H  36,C   5,C   3,H  34)    -63.8564         0.010290   
    173. D(O   6,C   5,C   3,C   2)     56.7416         0.010290   
    174. D(H  37,O   6,C   5,H  36)     44.2886         0.017542   
    175. D(H  37,O   6,C   5,C   3)    158.9695         0.017542   
    176. D(H  37,O   6,C   5,C   7)    -75.8597         0.017542   
    177. D(O   8,C   7,C   5,C   3)    176.1565         0.010915   
    178. D(H  39,C   7,C   5,O   6)    177.2561         0.010915   
    179. D(H  39,C   7,C   5,C   3)    -61.2874         0.010915   
    180. D(H  38,C   7,C   5,H  36)    178.5885         0.010915   
    181. D(H  38,C   7,C   5,O   6)    -64.0476         0.010915   
    182. D(O   8,C   7,C   5,H  36)    -62.6640         0.010915   
    183. D(O   8,C   7,C   5,O   6)     54.7000         0.010915   
    184. D(H  39,C   7,C   5,H  36)     59.8922         0.010915   
    185. D(H  38,C   7,C   5,C   3)     57.4089         0.010915   
    186. D(P   9,O   8,C   7,H  39)    -76.3429         0.020245   
    187. D(P   9,O   8,C   7,H  38)    168.8529         0.020245   
    188. D(P   9,O   8,C   7,C   5)     47.3912         0.020245   
    189. D(O  12,P   9,O   8,C   7)    -71.3710         0.013452   
    190. D(O  11,P   9,O   8,C   7)     37.1024         0.013452   
    191. D(O  10,P   9,O   8,C   7)    163.7827         0.013452   
    192. D(H  40,O  11,P   9,O  12)   -152.7758         0.013472   
    193. D(H  40,O  11,P   9,O   8)     97.8624         0.013472   
    194. D(H  40,O  11,P   9,O  10)    -30.9089         0.013472   
    195. D(H  41,O  12,P   9,O  11)     84.0600         0.012090   
    196. D(H  41,O  12,P   9,O  10)    -38.4616         0.012090   
    197. D(H  41,O  12,P   9,O   8)   -166.0776         0.012090   
    198. D(C  16,C  13,C   1,C   2)     87.8227         0.008459   
    199. D(C  16,C  13,C   1,O   0)    -95.3508         0.008459   
    200. D(O  15,C  13,C   1,C   2)   -148.8517         0.008459   
    201. D(O  15,C  13,C   1,O   0)     27.9747         0.008459   
    202. D(O  14,C  13,C   1,C   2)    -32.9264         0.008459   
    203. D(O  14,C  13,C   1,O   0)    143.9000         0.008459   
    204. D(H  42,O  14,C  13,C  16)   -175.5822         0.021350   
    205. D(H  42,O  14,C  13,O  15)     62.5486         0.021350   
    206. D(H  42,O  14,C  13,C   1)    -54.7079         0.021350   
    207. D(H  43,O  15,C  13,C  16)    112.4347         0.020501   
    208. D(H  43,O  15,C  13,O  14)   -127.0728         0.020501   
    209. D(H  43,O  15,C  13,C   1)     -9.7109         0.020501   
    210. D(C  30,C  16,C  13,O  15)    -41.9051         0.008887   
    211. D(C  30,C  16,C  13,C   1)     79.4259         0.008887   
    212. D(C  18,C  16,C  13,O  15)     81.1664         0.008887   
    213. D(C  18,C  16,C  13,O  14)    -37.3918         0.008887   
    214. D(C  18,C  16,C  13,C   1)   -157.5027         0.008887   
    215. D(O  17,C  16,C  13,O  15)   -162.9825         0.008887   
    216. D(C  30,C  16,C  13,O  14)   -160.4632         0.008887   
    217. D(O  17,C  16,C  13,O  14)     78.4593         0.008887   
    218. D(O  17,C  16,C  13,C   1)    -41.6516         0.008887   
    219. D(H  44,O  17,C  16,C  30)    144.0849         0.015400   
    220. D(H  44,O  17,C  16,C  18)     30.2594         0.015400   
    221. D(H  44,O  17,C  16,C  13)    -87.5341         0.015400   
    222. D(O  20,C  18,C  16,C  30)     46.9820         0.010371   
    223. D(O  20,C  18,C  16,O  17)    159.8853         0.010371   
    224. D(O  20,C  18,C  16,C  13)    -82.4539         0.010371   
    225. D(O  19,C  18,C  16,C  30)   -133.8742         0.010371   
    226. D(O  19,C  18,C  16,O  17)    -20.9709         0.010371   
    227. D(O  19,C  18,C  16,C  13)     96.6899         0.010371   
    228. D(C  21,O  20,C  18,O  19)    141.2280         0.030663   
    229. D(C  21,O  20,C  18,C  16)    -39.6214         0.030663   
    230. D(H  45,C  21,O  20,C  18)    -84.3312         0.016107   
    231. D(C  28,C  21,O  20,C  18)     36.9958         0.016107   
    232. D(C  22,C  21,O  20,C  18)    160.6873         0.016107   
    233. D(H  47,C  22,C  21,C  28)    -52.3775         0.010983   
    234. D(H  47,C  22,C  21,O  20)   -178.2925         0.010983   
    235. D(H  46,C  22,C  21,H  45)   -173.7789         0.010983   
    236. D(H  46,C  22,C  21,C  28)     66.0397         0.010983   
    237. D(H  46,C  22,C  21,O  20)    -59.8753         0.010983   
    238. D(O  23,C  22,C  21,H  45)    -51.4247         0.010983   
    239. D(O  23,C  22,C  21,C  28)   -171.6061         0.010983   
    240. D(H  47,C  22,C  21,H  45)     67.8039         0.010983   
    241. D(O  23,C  22,C  21,O  20)     62.4789         0.010983   
    242. D(P  24,O  23,C  22,H  47)    144.1949         0.020407   
    243. D(P  24,O  23,C  22,H  46)     27.9661         0.020407   
    244. D(P  24,O  23,C  22,C  21)    -95.1889         0.020407   
    245. D(O  27,P  24,O  23,C  22)    126.9521         0.012673   
    246. D(O  26,P  24,O  23,C  22)   -128.6833         0.012673   
    247. D(O  25,P  24,O  23,C  22)      1.0807         0.012673   
    248. D(H  48,O  26,P  24,O  27)     39.4183         0.013038   
    249. D(H  48,O  26,P  24,O  25)    161.4941         0.013038   
    250. D(H  48,O  26,P  24,O  23)    -66.9539         0.013038   
    251. D(H  49,O  27,P  24,O  26)    169.8850         0.012582   
    252. D(H  49,O  27,P  24,O  25)     45.8800         0.012582   
    253. D(H  49,O  27,P  24,O  23)    -83.6033         0.012582   
    254. D(H  50,C  28,C  21,H  45)   -159.9109         0.011468   
    255. D(H  50,C  28,C  21,C  22)    -41.0790         0.011468   
    256. D(H  50,C  28,C  21,O  20)     80.9112         0.011468   
    257. D(C  30,C  28,C  21,H  45)     75.8634         0.011468   
    258. D(C  30,C  28,C  21,C  22)   -165.3047         0.011468   
    259. D(C  30,C  28,C  21,O  20)    -43.3145         0.011468   
    260. D(O  29,C  28,C  21,H  45)    -43.2630         0.011468   
    261. D(O  29,C  28,C  21,C  22)     75.5689         0.011468   
    262. D(O  29,C  28,C  21,O  20)   -162.4409         0.011468   
    263. D(H  51,O  29,C  28,H  50)    -69.4109         0.017440   
    264. D(H  51,O  29,C  28,C  30)     50.1785         0.017440   
    265. D(H  51,O  29,C  28,C  21)    170.1431         0.017440   
    266. D(H  52,C  30,C  16,C  13)   -170.9180         0.011037   
    267. D(O  31,C  30,C  16,C  18)   -178.7756         0.011037   
    268. D(O  31,C  30,C  16,O  17)     68.0615         0.011037   
    269. D(O  31,C  30,C  16,C  13)    -54.6591         0.011037   
    270. D(C  28,C  30,C  16,C  18)    -55.4295         0.011037   
    271. D(C  28,C  30,C  16,O  17)   -168.5924         0.011037   
    272. D(H  52,C  30,C  16,O  17)    -48.1974         0.011037   
    273. D(C  28,C  30,C  16,C  13)     68.6870         0.011037   
    274. D(H  52,C  30,C  28,H  50)    170.1127         0.011631   
    275. D(H  52,C  30,C  28,O  29)     54.4114         0.011631   
    276. D(H  52,C  30,C  28,C  21)    -65.6180         0.011631   
    277. D(O  31,C  30,C  28,H  50)     57.6175         0.011631   
    278. D(O  31,C  30,C  28,O  29)    -58.0838         0.011631   
    279. D(O  31,C  30,C  28,C  21)   -178.1131         0.011631   
    280. D(C  16,C  30,C  28,H  50)    -68.8032         0.011631   
    281. D(C  16,C  30,C  28,O  29)    175.4955         0.011631   
    282. D(C  16,C  30,C  28,C  21)     55.4661         0.011631   
    283. D(H  52,C  30,C  16,C  18)     64.9655         0.011037   
    284. D(H  53,O  31,C  30,H  52)     64.2959         0.016923   
    285. D(H  53,O  31,C  30,C  28)    179.3863         0.016923   
    286. D(H  53,O  31,C  30,C  16)    -54.9181         0.016923   
    -----------------------------------------------------------------

Number of atoms                         .... 54
Number of degrees of freedom            .... 286

         *************************************************************
         *                GEOMETRY OPTIMIZATION CYCLE   1            *
         *************************************************************
---------------------------------
CARTESIAN COORDINATES (ANGSTROEM)
---------------------------------
  O    -0.738500   -2.089200   -1.241100
  C    -0.685800   -1.150700   -0.433200
  C    -1.881600   -0.842400    0.443100
  C    -2.932900   -0.097800   -0.387000
  O    -2.370100    1.176800   -0.757400
  C    -4.246300    0.188200    0.367800
  O    -3.916500    0.932100    1.551600
  C    -5.045700   -1.068500    0.730800
  O    -6.213100   -0.832500    1.499400
  P    -7.271900    0.300800    1.122400
  O    -8.611000    0.209500    1.766700
  O    -7.336000    0.300000   -0.472200
  O    -6.520800    1.685300    1.462700
  C     0.569700   -0.226200   -0.350200
  O     0.149900    1.092100   -0.075600
  O     1.198500   -0.196800   -1.618400
  C     1.534100   -0.725300    0.774600
  O     0.750600   -1.114700    1.936000
  C     2.426500    0.433100    1.227900
  O     2.149400    1.108100    2.221800
  O     3.526000    0.708000    0.491600
  C     4.331100   -0.360800   -0.061700
  C     5.168800    0.230100   -1.200300
  O     6.042300    1.221200   -0.689400
  P     5.556600    2.749100   -0.756500
  O     4.209000    3.050300   -1.326300
  O     6.789000    3.497900   -1.451000
  O     5.723900    3.252600    0.759000
  C     3.533700   -1.568300   -0.545800
  O     4.403300   -2.704100   -0.685600
  C     2.451900   -1.912900    0.470600
  O     1.751500   -3.081800    0.001000
  H    -1.561100   -0.256400    1.309500
  H    -2.264700   -1.800300    0.813300
  H    -3.146900   -0.633000   -1.321200
  H    -2.548600    1.769100    0.010700
  H    -4.844200    0.862100   -0.261000
  H    -4.747800    1.384300    1.816500
  H    -4.432300   -1.745600    1.337000
  H    -5.339000   -1.610400   -0.178800
  H    -8.105700   -0.224500   -0.803400
  H    -7.165700    2.420500    1.472300
  H    -0.504800    1.323900   -0.771600
  H     0.769600   -0.880000   -2.154300
  H     0.636600   -0.299900    2.462200
  H     5.023800   -0.665600    0.739100
  H     4.531700    0.657100   -1.990200
  H     5.774500   -0.547700   -1.672300
  H     7.571500    3.500000   -0.886800
  H     4.927500    2.991500    1.268300
  H     3.111200   -1.399900   -1.541000
  H     3.806400   -3.468100   -0.838900
  H     2.945200   -2.245000    1.402300
  H     1.067400   -3.295200    0.669600

----------------------------
CARTESIAN COORDINATES (A.U.)
----------------------------
  NO LB    ZA    FRAG    MASS        X           Y           Z
   0 O   8.0000    0    15.999   -1.395563   -3.948016   -2.345339
   1 C   6.0000    0    12.011   -1.295974   -2.174508   -0.818629
   2 C   6.0000    0    12.011   -3.555709   -1.591905    0.837338
   3 C   6.0000    0    12.011   -5.542378   -0.184815   -0.731324
   4 O   8.0000    0    15.999   -4.478840    2.223830   -1.431279
   5 C   6.0000    0    12.011   -8.024344    0.355646    0.695041
   6 O   8.0000    0    15.999   -7.401112    1.761414    2.932099
   7 C   6.0000    0    12.011   -9.534991   -2.019172    1.381012
   8 O   8.0000    0    15.999  -11.741057   -1.573197    2.833455
   9 P  15.0000    0    30.974  -13.741899    0.568430    2.121029
  10 O   8.0000    0    15.999  -16.272432    0.395898    3.338579
  11 O   8.0000    0    15.999  -13.863031    0.566918   -0.892329
  12 O   8.0000    0    15.999  -12.322526    3.184755    2.764102
  13 C   6.0000    0    12.011    1.076577   -0.427456   -0.661782
  14 O   8.0000    0    15.999    0.283270    2.063770   -0.142863
  15 O   8.0000    0    15.999    2.264837   -0.371898   -3.058333
  16 C   6.0000    0    12.011    2.899029   -1.370618    1.463782
  17 O   8.0000    0    15.999    1.418428   -2.106478    3.658510
  18 C   6.0000    0    12.011    4.585420    0.818440    2.320395
  19 O   8.0000    0    15.999    4.061777    2.094006    4.198594
  20 O   8.0000    0    15.999    6.663174    1.337926    0.928989
  21 C   6.0000    0    12.011    8.184593   -0.681813   -0.116596
  22 C   6.0000    0    12.011    9.767616    0.434826   -2.268238
  23 O   8.0000    0    15.999   11.418292    2.307734   -1.302777
  24 P  15.0000    0    30.974   10.500452    5.195046   -1.429578
  25 O   8.0000    0    15.999    7.953857    5.764232   -2.506344
  26 O   8.0000    0    15.999   12.829351    6.610073   -2.741993
  27 O   8.0000    0    15.999   10.816603    6.146523    1.434302
  28 C   6.0000    0    12.011    6.677725   -2.963657   -1.031413
  29 O   8.0000    0    15.999    8.321031   -5.110008   -1.295596
  30 C   6.0000    0    12.011    4.633420   -3.614857    0.889305
  31 O   8.0000    0    15.999    3.309855   -5.823758    0.001890
  32 H   1.0000    0     1.008   -2.950051   -0.484526    2.474596
  33 H   1.0000    0     1.008   -4.279663   -3.402074    1.536914
  34 H   1.0000    0     1.008   -5.946779   -1.196197   -2.496706
  35 H   1.0000    0     1.008   -4.816156    3.343115    0.020220
  36 H   1.0000    0     1.008   -9.154211    1.629133   -0.493219
  37 H   1.0000    0     1.008   -8.972042    2.615948    3.432688
  38 H   1.0000    0     1.008   -8.375833   -3.298706    2.526564
  39 H   1.0000    0     1.008  -10.089248   -3.043215   -0.337883
  40 H   1.0000    0     1.008  -15.317553   -0.424244   -1.518206
  41 H   1.0000    0     1.008  -13.541211    4.574082    2.782244
  42 H   1.0000    0     1.008   -0.953934    2.501808   -1.458113
  43 H   1.0000    0     1.008    1.454333   -1.662959   -4.071037
  44 H   1.0000    0     1.008    1.203000   -0.566729    4.652884
  45 H   1.0000    0     1.008    9.493606   -1.257802    1.396697
  46 H   1.0000    0     1.008    8.563672    1.241739   -3.760933
  47 H   1.0000    0     1.008   10.912224   -1.035003   -3.160189
  48 H   1.0000    0     1.008   14.308061    6.614041   -1.675809
  49 H   1.0000    0     1.008    9.311626    5.653116    2.396740
  50 H   1.0000    0     1.008    5.879316   -2.645428   -2.912068
  51 H   1.0000    0     1.008    7.193054   -6.553759   -1.585291
  52 H   1.0000    0     1.008    5.565621   -4.242435    2.649963
  53 H   1.0000    0     1.008    2.017094   -6.227026    1.265361

      -----------------------------------------------------------      
     |                   =====================                   |     
     |                           x T B                           |     
     |                   =====================                   |     
     |                         S. Grimme                         |     
     |          Mulliken Center for Theoretical Chemistry        |     
     |                    University of Bonn                     |     
      -----------------------------------------------------------      

   * xtb version 6.5.1 (579679a) compiled by 'ehlert@majestix' on 2022-07-11

   xtb is free software: you can redistribute it and/or modify it under
   the terms of the GNU Lesser General Public License as published by
   the Free Software Foundation, either version 3 of the License, or
   (at your option) any later version.
   
   xtb is distributed in the hope that it will be useful,
   but WITHOUT ANY WARRANTY; without even the implied warranty of
   MERCHANTABILITY or FITNESS FOR A PARTICULAR PURPOSE.  See the
   GNU Lesser General Public License for more details.
   
   Cite this work as:
   * C. Bannwarth, E. Caldeweyher, S. Ehlert, A. Hansen, P. Pracht,
     J. Seibert, S. Spicher, S. Grimme, WIREs Comput. Mol. Sci., 2020, 11,
     e01493. DOI: 10.1002/wcms.1493
   
   for GFN2-xTB:
   * C. Bannwarth, S. Ehlert and S. Grimme., J. Chem. Theory Comput., 2019,
     15, 1652-1671. DOI: 10.1021/acs.jctc.8b01176
   for GFN1-xTB:
   * S. Grimme, C. Bannwarth, P. Shushkov, J. Chem. Theory Comput., 2017,
     13, 1989-2009. DOI: 10.1021/acs.jctc.7b00118
   for GFN0-xTB:
   * P. Pracht, E. Caldeweyher, S. Ehlert, S. Grimme, ChemRxiv, 2019, preprint.
     DOI: 10.26434/chemrxiv.8326202.v1
   for GFN-FF:
   * S. Spicher and S. Grimme, Angew. Chem. Int. Ed., 2020, 59, 15665-15673.
     DOI: 10.1002/anie.202004239
   
   for ALPB and GBSA implicit solvation:
   * S. Ehlert, M. Stahn, S. Spicher, S. Grimme, J. Chem. Theory Comput.,
     2021, 17, 4250-4261. DOI: 10.1021/acs.jctc.1c00471
   
   for DFT-D4:
   * E. Caldeweyher, C. Bannwarth and S. Grimme, J. Chem. Phys., 2017,
     147, 034112. DOI: 10.1063/1.4993215
   * E. Caldeweyher, S. Ehlert, A. Hansen, H. Neugebauer, S. Spicher,
     C. Bannwarth and S. Grimme, J. Chem. Phys., 2019, 150, 154122.
     DOI: 10.1063/1.5090222
   * E. Caldeweyher, J.-M. Mewes, S. Ehlert and S. Grimme, Phys. Chem. Chem. Phys.
     2020, 22, 8499-8512. DOI: 10.1039/D0CP00502A
   
   for sTDA-xTB:
   * S. Grimme and C. Bannwarth, J. Chem. Phys., 2016, 145, 054103.
     DOI: 10.1063/1.4959605
   
   in the mass-spec context:
   * V. Asgeirsson, C. Bauer and S. Grimme, Chem. Sci., 2017, 8, 4879.
     DOI: 10.1039/c7sc00601b
   * J. Koopman and S. Grimme, ACS Omega 2019, 4, 12, 15120-15133.
     DOI: 10.1021/acsomega.9b02011
   
   for metadynamics refer to:
   * S. Grimme, J. Chem. Theory Comput., 2019, 155, 2847-2862
     DOI: 10.1021/acs.jctc.9b00143
   
   for SPH calculations refer to:
   * S. Spicher and S. Grimme, J. Chem. Theory Comput., 2021, 17, 1701-1714
     DOI: 10.1021/acs.jctc.0c01306
   
   with help from (in alphabetical order)
   P. Atkinson, C. Bannwarth, F. Bohle, G. Brandenburg, E. Caldeweyher
   M. Checinski, S. Dohm, S. Ehlert, S. Ehrlich, I. Gerasimov, C. Hölzer
   A. Katbashev, J. Koopman, C. Lavigne, S. Lehtola, F. März, M. Müller,
   F. Musil, H. Neugebauer, J. Pisarek, C. Plett, P. Pracht, F. Pultar,
   J. Seibert, P. Shushkov, S. Spicher, M. Stahn, M. Steiner, T. Strunk,
   J. Stückrath, T. Rose, and J. Unsleber
   
 * started run on 2023/12/06 at 20:16:19.343     

           -------------------------------------------------
          |                Calculation Setup                |
           -------------------------------------------------

          program call               : otool_xtb /tmp/17_XTB.xyz --grad -c 0 -u 0 -P 1 --namespace /tmp/17 --input /tmp/17_XTB.input.tmp --acc 1.000000
          calculation namespace      : /tmp/17
          coordinate file            : /tmp/17_XTB.xyz
          omp threads                :                     1

   ID    Z sym.   atoms
    1    8 O      1, 5, 7, 9, 11-13, 15, 16, 18, 20, 21, 24, 26-28, 30, 32
    2    6 C      2-4, 6, 8, 14, 17, 19, 22, 23, 29, 31
    3   15 P      10, 25
    4    1 H      33-54

           -------------------------------------------------
          |                 G F N 2 - x T B                 |
           -------------------------------------------------

        Reference                      10.1021/acs.jctc.8b01176
      * Hamiltonian:
        H0-scaling (s, p, d)           1.850000    2.230000    2.230000
        zeta-weighting                 0.500000
      * Dispersion:
        s8                             2.700000
        a1                             0.520000
        a2                             5.000000
        s9                             5.000000
      * Repulsion:
        kExp                           1.500000    1.000000
        rExp                           1.000000
      * Coulomb:
        alpha                          2.000000
        third order                    shell-resolved
        anisotropic                    true
        a3                             3.000000
        a5                             4.000000
        cn-shift                       1.200000
        cn-exp                         4.000000
        max-rad                        5.000000


          ...................................................
          :                      SETUP                      :
          :.................................................:
          :  # basis functions                 162          :
          :  # atomic orbitals                 160          :
          :  # shells                           88          :
          :  # electrons                       188          :
          :  max. iterations                   250          :
          :  Hamiltonian                  GFN2-xTB          :
          :  restarted?                      false          :
          :  GBSA solvation                  false          :
          :  PC potential                    false          :
          :  electronic temp.          300.0000000     K    :
          :  accuracy                    1.0000000          :
          :  -> integral cutoff          0.2500000E+02      :
          :  -> integral neglect         0.1000000E-07      :
          :  -> SCF convergence          0.1000000E-05 Eh   :
          :  -> wf. convergence          0.1000000E-03 e    :
          :  Broyden damping             0.4000000          :
          ...................................................

 iter      E             dE          RMSdq      gap      omega  full diag
   1   -115.9317198 -0.115932E+03  0.645E+00    3.66       0.0  T
   2   -116.0964380 -0.164718E+00  0.362E+00    2.92       1.0  T
   3   -116.1047182 -0.828019E-02  0.140E+00    3.27       1.0  T
   4   -116.1354462 -0.307280E-01  0.563E-01    2.90       1.0  T
   5   -116.1379055 -0.245932E-02  0.237E-01    3.09       1.0  T
   6   -116.1385093 -0.603847E-03  0.832E-02    3.02       1.0  T
   7   -116.1385979 -0.886027E-04  0.479E-02    3.04       1.0  T
   8   -116.1386135 -0.155341E-04  0.147E-02    3.03       1.0  T
   9   -116.1386158 -0.229280E-05  0.701E-03    3.03       1.9  T
  10   -116.1386160 -0.284510E-06  0.219E-03    3.03       6.2  T
  11   -116.1386161 -0.498104E-07  0.925E-04    3.03      14.7  T
  12   -116.1386161 -0.319795E-08  0.315E-04    3.03      43.2  T

   *** convergence criteria satisfied after 12 iterations ***

         #    Occupation            Energy/Eh            Energy/eV
      -------------------------------------------------------------
         1        2.0000           -0.7708777             -20.9766
       ...           ...                  ...                  ...
        88        2.0000           -0.4448496             -12.1050
        89        2.0000           -0.4423419             -12.0367
        90        2.0000           -0.4404994             -11.9866
        91        2.0000           -0.4347792             -11.8309
        92        2.0000           -0.4264404             -11.6040
        93        2.0000           -0.4242708             -11.5450
        94        2.0000           -0.4189968             -11.4015 (HOMO)
        95                         -0.3074711              -8.3667 (LUMO)
        96                         -0.2781635              -7.5692
        97                         -0.1143011              -3.1103
        98                         -0.0817366              -2.2242
        99                         -0.0800110              -2.1772
       ...                                ...                  ...
       160                          1.2086912              32.8902
      -------------------------------------------------------------
                  HL-Gap            0.1115258 Eh            3.0348 eV
             Fermi-level           -0.3632339 Eh           -9.8841 eV

 SCC (total)                   0 d,  0 h,  0 min,  0.118 sec
 SCC setup                      ...        0 min,  0.000 sec (  0.359%)
 Dispersion                     ...        0 min,  0.001 sec (  0.575%)
 classical contributions        ...        0 min,  0.000 sec (  0.132%)
 integral evaluation            ...        0 min,  0.015 sec ( 12.889%)
 iterations                     ...        0 min,  0.049 sec ( 41.742%)
 molecular gradient             ...        0 min,  0.052 sec ( 43.831%)
 printout                       ...        0 min,  0.001 sec (  0.451%)

         :::::::::::::::::::::::::::::::::::::::::::::::::::::
         ::                     SUMMARY                     ::
         :::::::::::::::::::::::::::::::::::::::::::::::::::::
         :: total energy            -115.431841556292 Eh    ::
         :: gradient norm              0.163878340912 Eh/a0 ::
         :: HOMO-LUMO gap              3.034770505669 eV    ::
         ::.................................................::
         :: SCC energy              -116.138616089623 Eh    ::
         :: -> isotropic ES            0.447294052653 Eh    ::
         :: -> anisotropic ES         -0.018042840960 Eh    ::
         :: -> anisotropic XC         -0.011196208975 Eh    ::
         :: -> dispersion             -0.060606349309 Eh    ::
         :: repulsion energy           0.706226375515 Eh    ::
         :: add. restraining           0.000000000000 Eh    ::
         :: total charge              -0.000000000000 e     ::
         :::::::::::::::::::::::::::::::::::::::::::::::::::::


Property printout bound to 'properties.out'

           -------------------------------------------------
          | TOTAL ENERGY             -115.431841556292 Eh   |
          | GRADIENT NORM               0.163878340912 Eh/α |
          | HOMO-LUMO GAP               3.034770505669 eV   |
           -------------------------------------------------

------------------------------------------------------------------------
 * finished run on 2023/12/06 at 20:16:19.483     
------------------------------------------------------------------------
 total:
 * wall-time:     0 d,  0 h,  0 min,  0.140 sec
 *  cpu-time:     0 d,  0 h,  0 min,  0.140 sec
 * ratio c/w:     0.998 speedup
 SCF:
 * wall-time:     0 d,  0 h,  0 min,  0.118 sec
 *  cpu-time:     0 d,  0 h,  0 min,  0.120 sec
 * ratio c/w:     1.014 speedup


-------------------------   --------------------
FINAL SINGLE POINT ENERGY      -115.431841556290
-------------------------   --------------------

------------------------------------------------------------------------------
                         ORCA GEOMETRY RELAXATION STEP
------------------------------------------------------------------------------

Reading the OPT-File                    .... done
Getting information on internals        .... done
Copying old internal coords+grads       .... done
Making the new internal coordinates     .... (new redundants).... done
Validating the new internal coordinates .... (new redundants).... done
Calculating the B-matrix                .... done
Calculating the G,G- and P matrices     .... done
Transforming gradient to internals      .... done
Projecting the internal gradient        .... done
Number of atoms                         ....  54
Number of internal coordinates          .... 286
Current Energy                          ....  -115.431841556 Eh
Current gradient norm                   ....     0.163878341 Eh/bohr
Maximum allowed component of the step   ....  0.300
Current trust radius                    ....  0.300
Evaluating the initial hessian          ....  (Almloef) done
Projecting the Hessian                  .... done
Forming the augmented Hessian           .... done
Diagonalizing the augmented Hessian     .... done
Last element of RFO vector              ....  0.910353972
Lowest eigenvalues of augmented Hessian:
 -0.036027825  0.008499545  0.008891434  0.010133429  0.010296150
Length of the computed step             ....  0.454581920
Warning: the length of the step is outside the trust region - taking restricted step instead
The input lambda is                     ....    -0.036028
   iter:   1  x=   -0.056800  g=    5.615458 f(x)=     0.116645
   iter:   2  x=   -0.075858  g=    2.243500 f(x)=     0.042757
   iter:   3  x=   -0.084531  g=    1.250764 f(x)=     0.010848
   iter:   4  x=   -0.085634  g=    1.007882 f(x)=     0.001112
   iter:   5  x=   -0.085649  g=    0.982290 f(x)=     0.000014
   iter:   6  x=   -0.085649  g=    0.981961 f(x)=     0.000000
   iter:   7  x=   -0.085649  g=    0.981961 f(x)=     0.000000
The output lambda is                    ....    -0.085649 (7 iterations)
The final length of the internal step   ....  0.300000000
Converting the step to cartesian space:
 Initial RMS(Int)=    0.0177393719
Transforming coordinates:
 Iter   0:  RMS(Cart)=    0.1370440726 RMS(Int)=    0.3710859334
 Iter   1:  RMS(Cart)=    0.0064887592 RMS(Int)=    0.0023519193
 Iter   2:  RMS(Cart)=    0.0005329557 RMS(Int)=    0.0000920471
 Iter   3:  RMS(Cart)=    0.0000531191 RMS(Int)=    0.0000241203
 Iter   4:  RMS(Cart)=    0.0000054849 RMS(Int)=    0.0000011593
 Iter   5:  RMS(Cart)=    0.0000005607 RMS(Int)=    0.0000002931
 Iter   6:  RMS(Cart)=    0.0000000617 RMS(Int)=    0.0000000169
done
Storing new coordinates                 .... done

                                .--------------------.
          ----------------------|Geometry convergence|-------------------------
          Item                value                   Tolerance       Converged
          ---------------------------------------------------------------------
          RMS gradient        0.0077245000            0.0001000000      NO
          MAX gradient        0.0506918834            0.0003000000      NO
          RMS step            0.0177393719            0.0020000000      NO
          MAX step            0.0651986719            0.0040000000      NO
          ........................................................
          Max(Bonds)      0.0248      Max(Angles)    2.53
          Max(Dihed)        3.74      Max(Improp)    0.00
          ---------------------------------------------------------------------

The optimization has not yet converged - more geometry cycles are needed


    ---------------------------------------------------------------------------
                         Redundant Internal Coordinates
                            (Angstroem and degrees)

        Definition                    Value    dE/dq     Step     New-Value
    ----------------------------------------------------------------------------
     1. B(C   1,O   0)                1.2395  0.048099 -0.0240    1.2154   
     2. B(C   2,C   1)                1.5142  0.004297 -0.0047    1.5095   
     3. B(C   3,C   2)                1.5326 -0.005273  0.0061    1.5387   
     4. B(O   4,C   3)                1.4417  0.018185 -0.0175    1.4242   
     5. B(C   5,C   3)                1.5416  0.006246 -0.0075    1.5342   
     6. B(O   6,C   5)                1.4365  0.011489 -0.0109    1.4256   
     7. B(C   7,C   5)                1.5330  0.004493 -0.0052    1.5278   
     8. B(O   8,C   7)                1.4175 -0.002294  0.0021    1.4195   
     9. B(P   9,O   8)                1.5961  0.005308 -0.0029    1.5932   
    10. B(O  10,P   9)                1.4888  0.038515 -0.0146    1.4742   
    11. B(O  11,P   9)                1.5959 -0.004266  0.0023    1.5982   
    12. B(O  12,P   9)                1.6115  0.005872 -0.0034    1.6081   
    13. B(C  13,C   1)                1.5614  0.008515 -0.0108    1.5506   
    14. B(O  14,C  13)                1.4105  0.016033 -0.0140    1.3965   
    15. B(O  15,C  13)                1.4158  0.011420 -0.0102    1.4057   
    16. B(C  16,C  13)                1.5634  0.009237 -0.0117    1.5517   
    17. B(O  17,C  16)                1.4541  0.023058 -0.0231    1.4310   
    18. B(C  18,C  16)                1.5309  0.002510 -0.0030    1.5279   
    19. B(O  19,C  18)                1.2330  0.050692 -0.0248    1.2082   
    20. B(O  20,C  18)                1.3515  0.020150 -0.0155    1.3360   
    21. B(C  21,O  20)                1.4480  0.012291 -0.0129    1.4350   
    22. B(C  22,C  21)                1.5321  0.006992 -0.0081    1.5240   
    23. B(O  23,C  22)                1.4164  0.008077 -0.0072    1.4092   
    24. B(P  24,O  23)                1.6046 -0.003613  0.0020    1.6067   
    25. B(O  25,P  24)                1.4938  0.044337 -0.0171    1.4767   
    26. B(O  26,P  24)                1.6006  0.011652 -0.0065    1.5941   
    27. B(O  27,P  24)                1.6057  0.003545 -0.0020    1.6037   
    28. B(C  28,C  21)                1.5259  0.002970 -0.0033    1.5225   
    29. B(O  29,C  28)                1.4373  0.014854 -0.0141    1.4231   
    30. B(C  30,C  28)                1.5238  0.000093  0.0014    1.5252   
    31. B(C  30,C  16)                1.5314  0.005876 -0.0060    1.5254   
    32. B(O  31,C  30)                1.4413  0.016912 -0.0163    1.4250   
    33. B(H  32,C   2)                1.0940  0.002630 -0.0032    1.0908   
    34. B(H  33,C   2)                1.0961  0.003489 -0.0042    1.0919   
    35. B(H  34,C   3)                1.0977  0.002831 -0.0034    1.0943   
    36. B(H  35,O   4)                0.9862  0.013366 -0.0127    0.9736   
    37. B(H  36,C   5)                1.0986 -0.000055  0.0001    1.0987   
    38. B(H  37,O   6)                0.9827  0.014376 -0.0135    0.9692   
    39. B(H  38,C   7)                1.0964  0.002131 -0.0026    1.0939   
    40. B(H  39,C   7)                1.0987  0.001325 -0.0016    1.0970   
    41. B(H  40,O  11)                0.9886  0.025775 -0.0246    0.9639   
    42. B(H  41,O  12)                0.9780  0.016908 -0.0156    0.9624   
    43. B(H  42,O  14)                0.9832  0.008127 -0.0076    0.9756   
    44. B(H  43,O  15)                0.9685 -0.002880  0.0026    0.9710   
    45. B(H  44,O  17)                0.9766  0.003299 -0.0030    0.9736   
    46. B(H  45,C  21)                1.1018  0.001628 -0.0020    1.0998   
    47. B(H  46,C  22)                1.1010  0.003905 -0.0048    1.0962   
    48. B(H  47,C  22)                1.0930 -0.000273  0.0003    1.0933   
    49. B(H  48,O  26)                0.9647  0.006584 -0.0058    0.9589   
    50. B(H  49,O  27)                0.9807  0.018426 -0.0172    0.9635   
    51. B(H  50,C  28)                1.0942 -0.000949  0.0011    1.0953   
    52. B(H  51,O  29)                0.9816  0.011916 -0.0111    0.9704   
    53. B(H  52,C  30)                1.1053  0.001945 -0.0024    1.1029   
    54. B(H  53,O  31)                0.9801  0.013619 -0.0127    0.9674   
    55. A(O   0,C   1,C   2)          119.85 -0.007153    0.77    120.63   
    56. A(O   0,C   1,C  13)          121.14  0.013579   -1.57    119.58   
    57. A(C   2,C   1,C  13)          118.93 -0.006453    0.81    119.73   
    58. A(C   3,C   2,H  32)          111.70  0.002048   -0.13    111.57   
    59. A(H  32,C   2,H  33)          107.64 -0.003588    0.60    108.24   
    60. A(C   1,C   2,H  32)          109.64 -0.000461    0.55    110.18   
    61. A(C   3,C   2,H  33)          111.58  0.007153   -1.51    110.07   
    62. A(C   1,C   2,C   3)          109.10 -0.006729    0.86    109.96   
    63. A(C   1,C   2,H  33)          107.07  0.001581   -0.37    106.70   
    64. A(C   5,C   3,H  34)          109.94 -0.003497    0.08    110.02   
    65. A(C   2,C   3,O   4)          107.51 -0.012042    2.30    109.81   
    66. A(O   4,C   3,H  34)          106.77  0.003320   -0.48    106.29   
    67. A(C   2,C   3,C   5)          114.17  0.007905   -1.15    113.02   
    68. A(O   4,C   3,C   5)          107.12  0.002952   -0.31    106.81   
    69. A(C   2,C   3,H  34)          110.97  0.000993   -0.34    110.62   
    70. A(C   3,O   4,H  35)          105.08 -0.002359    0.31    105.40   
    71. A(C   3,C   5,C   7)          114.09  0.001055   -0.51    113.58   
    72. A(O   6,C   5,C   7)          110.43 -0.004282    0.68    111.12   
    73. A(C   3,C   5,O   6)          107.70  0.005596   -0.99    106.70   
    74. A(C   3,C   5,H  36)          107.29 -0.001284    0.07    107.36   
    75. A(C   7,C   5,H  36)          110.77  0.002944   -0.47    110.29   
    76. A(O   6,C   5,H  36)          106.20 -0.004278    1.33    107.53   
    77. A(C   5,O   6,H  37)          105.44 -0.006884    0.91    106.35   
    78. A(C   5,C   7,H  39)          110.33  0.002405   -0.33    110.00   
    79. A(H  38,C   7,H  39)          107.61 -0.002534    0.47    108.07   
    80. A(C   5,C   7,H  38)          110.21  0.002631   -0.46    109.75   
    81. A(O   8,C   7,H  39)          108.13 -0.000173    0.12    108.25   
    82. A(O   8,C   7,H  38)          105.29  0.000705   -0.13    105.17   
    83. A(C   5,C   7,O   8)          114.92 -0.003197    0.37    115.30   
    84. A(C   7,O   8,P   9)          122.44 -0.010426    1.07    123.52   
    85. A(O  10,P   9,O  12)          112.37 -0.002691    0.28    112.65   
    86. A(O   8,P   9,O  12)          104.53 -0.003694    0.37    104.91   
    87. A(O  10,P   9,O  11)          113.34 -0.003097    0.32    113.66   
    88. A(O   8,P   9,O  11)          105.21 -0.003178    0.31    105.52   
    89. A(O   8,P   9,O  10)          116.80  0.007285   -0.81    115.99   
    90. A(O  11,P   9,O  12)          103.31  0.005166   -0.44    102.87   
    91. A(P   9,O  11,H  40)          111.49  0.004055   -0.47    111.02   
    92. A(P   9,O  12,H  41)          109.91  0.002667   -0.31    109.60   
    93. A(C   1,C  13,O  15)          108.77  0.005393   -0.63    108.14   
    94. A(C   1,C  13,C  16)          110.20 -0.001632   -0.26    109.94   
    95. A(O  15,C  13,C  16)          112.15 -0.000193   -0.35    111.80   
    96. A(O  14,C  13,C  16)          109.99  0.014049   -2.53    107.47   
    97. A(O  14,C  13,O  15)          106.69 -0.009536    2.12    108.81   
    98. A(C   1,C  13,O  14)          108.93 -0.008654    1.81    110.74   
    99. A(C  13,O  14,H  42)          106.30 -0.008043    1.05    107.35   
   100. A(C  13,O  15,H  43)          106.52 -0.004269    0.55    107.07   
   101. A(O  17,C  16,C  18)          106.27 -0.001662    0.49    106.77   
   102. A(C  13,C  16,C  18)          109.33  0.001164   -0.51    108.82   
   103. A(C  13,C  16,O  17)          109.13  0.000933   -0.18    108.95   
   104. A(C  18,C  16,C  30)          107.23 -0.001016    0.48    107.71   
   105. A(O  17,C  16,C  30)          105.89 -0.003134    0.84    106.73   
   106. A(C  13,C  16,C  30)          118.32  0.003102   -0.94    117.38   
   107. A(C  16,O  17,H  44)          105.65 -0.000456    0.06    105.71   
   108. A(O  19,C  18,O  20)          120.71 -0.000993    0.05    120.76   
   109. A(C  16,C  18,O  20)          117.83 -0.002356    0.37    118.20   
   110. A(C  16,C  18,O  19)          121.46  0.003353   -0.43    121.03   
   111. A(C  18,O  20,C  21)          120.69 -0.003958    0.38    121.07   
   112. A(O  20,C  21,C  28)          114.51 -0.000302    0.19    114.70   
   113. A(C  22,C  21,C  28)          110.80 -0.005099    0.71    111.52   
   114. A(C  28,C  21,H  45)          109.89  0.002192   -0.28    109.61   
   115. A(C  22,C  21,H  45)          107.64 -0.000259    0.16    107.80   
   116. A(O  20,C  21,H  45)          106.02 -0.001482    0.12    106.14   
   117. A(O  20,C  21,C  22)          107.66  0.005147   -0.93    106.72   
   118. A(H  46,C  22,H  47)          106.67 -0.004830    1.31    107.98   
   119. A(C  21,C  22,H  47)          110.45  0.001916   -0.27    110.19   
   120. A(O  23,C  22,H  47)          108.18 -0.003892    0.62    108.79   
   121. A(O  23,C  22,H  46)          110.14 -0.001531   -0.05    110.09   
   122. A(C  21,C  22,H  46)          111.49  0.002430   -0.57    110.92   
   123. A(C  21,C  22,O  23)          109.82  0.005409   -0.94    108.87   
   124. A(C  22,O  23,P  24)          117.68  0.005037   -0.52    117.16   
   125. A(O  26,P  24,O  27)          100.52 -0.001984    0.49    101.01   
   126. A(O  25,P  24,O  27)          113.00 -0.008648    1.24    114.24   
   127. A(O  23,P  24,O  27)          103.15 -0.000568    0.19    103.34   
   128. A(O  25,P  24,O  26)          115.77  0.001377   -0.26    115.51   
   129. A(O  23,P  24,O  26)          103.33  0.001132   -0.43    102.90   
   130. A(O  23,P  24,O  25)          118.75  0.007602   -1.05    117.70   
   131. A(P  24,O  26,H  48)          111.83  0.001725   -0.20    111.63   
   132. A(P  24,O  27,H  49)          108.79  0.001103   -0.13    108.66   
   133. A(O  29,C  28,C  30)          108.40 -0.003998    0.58    108.99   
   134. A(C  21,C  28,C  30)          109.78  0.000884    0.01    109.79   
   135. A(C  30,C  28,H  50)          111.55  0.002005   -0.42    111.13   
   136. A(O  29,C  28,H  50)          105.47 -0.004144    1.23    106.70   
   137. A(C  21,C  28,O  29)          109.88  0.004986   -1.06    108.82   
   138. A(C  21,C  28,H  50)          111.63  0.000065   -0.30    111.32   
   139. A(C  28,O  29,H  51)          105.21 -0.001214    0.16    105.37   
   140. A(C  28,C  30,O  31)          108.12 -0.000364   -0.15    107.97   
   141. A(C  16,C  30,O  31)          113.73 -0.001311   -0.04    113.68   
   142. A(C  16,C  30,C  28)          112.49  0.003864   -0.52    111.97   
   143. A(O  31,C  30,H  52)          104.35 -0.003955    1.34    105.69   
   144. A(C  28,C  30,H  52)          108.26 -0.002059    0.34    108.60   
   145. A(C  16,C  30,H  52)          109.46  0.003154   -0.80    108.66   
   146. A(C  30,O  31,H  53)          107.07 -0.001110    0.15    107.21   
   147. D(H  33,C   2,C   1,C  13)   -139.75 -0.000969    1.71   -138.04   
   148. D(H  32,C   2,C   1,C  13)    -23.25 -0.004580    2.50    -20.75   
   149. D(H  32,C   2,C   1,O   0)    159.88 -0.004438    2.25    162.13   
   150. D(C   3,C   2,C   1,O   0)    -77.51 -0.006535    2.99    -74.52   
   151. D(C   3,C   2,C   1,C  13)     99.36 -0.006676    3.25    102.60   
   152. D(H  33,C   2,C   1,O   0)     43.38 -0.000827    1.45     44.84   
   153. D(O   4,C   3,C   2,C   1)    -65.38  0.002704   -0.61    -65.99   
   154. D(H  34,C   3,C   2,H  32)    172.40 -0.003619    1.16    173.56   
   155. D(H  34,C   3,C   2,C   1)     51.03  0.000188   -0.03     51.01   
   156. D(C   5,C   3,C   2,C   1)    175.94  0.002461   -1.10    174.84   
   157. D(C   5,C   3,C   2,H  33)     57.84  0.000454   -0.28     57.56   
   158. D(O   4,C   3,C   2,H  33)    176.52  0.000697    0.21    176.73   
   159. D(H  34,C   3,C   2,H  33)    -67.06 -0.001819    0.79    -66.27   
   160. D(O   4,C   3,C   2,H  32)     55.98 -0.001104    0.58     56.56   
   161. D(C   5,C   3,C   2,H  32)    -62.69 -0.001346    0.09    -62.61   
   162. D(H  35,O   4,C   3,C   2)    -84.75 -0.004254    1.22    -83.54   
   163. D(H  35,O   4,C   3,H  34)    156.11 -0.000901    0.68    156.78   
   164. D(H  35,O   4,C   3,C   5)     38.36 -0.000007    0.99     39.35   
   165. D(C   7,C   5,C   3,O   4)    174.88  0.005027   -0.90    173.98   
   166. D(H  36,C   5,C   3,O   4)     51.79  0.001505   -0.01     51.79   
   167. D(C   7,C   5,C   3,H  34)     59.23  0.001282   -0.20     59.03   
   168. D(H  36,C   5,C   3,C   2)    170.69 -0.006785    1.97    172.67   
   169. D(O   6,C   5,C   3,O   4)    -62.16  0.004374   -1.10    -63.26   
   170. D(C   7,C   5,C   3,C   2)    -66.22 -0.003262    1.08    -65.14   
   171. D(O   6,C   5,C   3,H  34)   -177.81  0.000628   -0.40   -178.21   
   172. D(H  36,C   5,C   3,H  34)    -63.86 -0.002241    0.70    -63.16   
   173. D(O   6,C   5,C   3,C   2)     56.74 -0.003916    0.88     57.62   
   174. D(H  37,O   6,C   5,H  36)     44.29 -0.001591    0.92     45.20   
   175. D(H  37,O   6,C   5,C   3)    158.97 -0.002531    1.18    160.14   
   176. D(H  37,O   6,C   5,C   7)    -75.86 -0.000199    0.31    -75.55   
   177. D(O   8,C   7,C   5,C   3)    176.16  0.000129    0.58    176.74   
   178. D(H  39,C   7,C   5,O   6)    177.26 -0.005394    1.90    179.16   
   179. D(H  39,C   7,C   5,C   3)    -61.29 -0.000560    0.75    -60.53   
   180. D(H  38,C   7,C   5,H  36)    178.59  0.000736    0.20    178.79   
   181. D(H  38,C   7,C   5,O   6)    -64.05 -0.005385    1.98    -62.07   
   182. D(O   8,C   7,C   5,H  36)    -62.66  0.001416   -0.05    -62.71   
   183. D(O   8,C   7,C   5,O   6)     54.70 -0.004705    1.73     56.43   
   184. D(H  39,C   7,C   5,H  36)     59.89  0.000727    0.12     60.01   
   185. D(H  38,C   7,C   5,C   3)     57.41 -0.000551    0.84     58.24   
   186. D(P   9,O   8,C   7,H  39)    -76.34 -0.004737    2.15    -74.19   
   187. D(P   9,O   8,C   7,H  38)    168.85 -0.002099    1.63    170.48   
   188. D(P   9,O   8,C   7,C   5)     47.39 -0.003976    2.07     49.46   
   189. D(O  12,P   9,O   8,C   7)    -71.37 -0.000765   -0.35    -71.72   
   190. D(O  11,P   9,O   8,C   7)     37.10  0.002374   -0.58     36.52   
   191. D(O  10,P   9,O   8,C   7)    163.78  0.000822   -0.48    163.31   
   192. D(H  40,O  11,P   9,O  12)   -152.78 -0.001625    0.67   -152.11   
   193. D(H  40,O  11,P   9,O   8)     97.86  0.001593    0.31     98.18   
   194. D(H  40,O  11,P   9,O  10)    -30.91 -0.003214    0.90    -30.01   
   195. D(H  41,O  12,P   9,O  11)     84.06 -0.000636    0.54     84.60   
   196. D(H  41,O  12,P   9,O  10)    -38.46  0.001271    0.29    -38.18   
   197. D(H  41,O  12,P   9,O   8)   -166.08 -0.003507    0.86   -165.22   
   198. D(C  16,C  13,C   1,C   2)     87.82  0.002380    0.00     87.83   
   199. D(C  16,C  13,C   1,O   0)    -95.35  0.001554    0.34    -95.01   
   200. D(O  15,C  13,C   1,C   2)   -148.85  0.004660   -1.03   -149.88   
   201. D(O  15,C  13,C   1,O   0)     27.97  0.003834   -0.69     27.28   
   202. D(O  14,C  13,C   1,C   2)    -32.93 -0.008446    2.13    -30.79   
   203. D(O  14,C  13,C   1,O   0)    143.90 -0.009273    2.47    146.37   
   204. D(H  42,O  14,C  13,C  16)   -175.58  0.000003    0.20   -175.39   
   205. D(H  42,O  14,C  13,O  15)     62.55 -0.002038    0.78     63.33   
   206. D(H  42,O  14,C  13,C   1)    -54.71  0.001222   -0.54    -55.25   
   207. D(H  43,O  15,C  13,C  16)    112.43 -0.002186   -0.20    112.23   
   208. D(H  43,O  15,C  13,O  14)   -127.07  0.008782   -2.14   -129.21   
   209. D(H  43,O  15,C  13,C   1)     -9.71 -0.003741    0.80     -8.91   
   210. D(C  30,C  16,C  13,O  15)    -41.91 -0.004095    1.07    -40.83   
   211. D(C  30,C  16,C  13,C   1)     79.43  0.001508   -0.16     79.27   
   212. D(C  18,C  16,C  13,O  15)     81.17 -0.002087    0.57     81.74   
   213. D(C  18,C  16,C  13,O  14)    -37.39  0.000690   -0.19    -37.58   
   214. D(C  18,C  16,C  13,C   1)   -157.50  0.003515   -0.66   -158.16   
   215. D(O  17,C  16,C  13,O  15)   -162.98 -0.002909    0.78   -162.20   
   216. D(C  30,C  16,C  13,O  14)   -160.46 -0.001318    0.32   -160.15   
   217. D(O  17,C  16,C  13,O  14)     78.46 -0.000132    0.02     78.48   
   218. D(O  17,C  16,C  13,C   1)    -41.65  0.002693   -0.45    -42.10   
   219. D(H  44,O  17,C  16,C  30)    144.08 -0.000976    0.11    144.20   
   220. D(H  44,O  17,C  16,C  18)     30.26  0.002299   -1.03     29.23   
   221. D(H  44,O  17,C  16,C  13)    -87.53  0.001359   -0.61    -88.14   
   222. D(O  20,C  18,C  16,C  30)     46.98  0.002714   -0.99     45.99   
   223. D(O  20,C  18,C  16,O  17)    159.89 -0.002074    0.41    160.29   
   224. D(O  20,C  18,C  16,C  13)    -82.45 -0.001291    0.21    -82.25   
   225. D(O  19,C  18,C  16,C  30)   -133.87  0.003045   -1.20   -135.07   
   226. D(O  19,C  18,C  16,O  17)    -20.97 -0.001743    0.20    -20.77   
   227. D(O  19,C  18,C  16,C  13)     96.69 -0.000960   -0.00     96.69   
   228. D(C  21,O  20,C  18,O  19)    141.23 -0.004367    1.48    142.71   
   229. D(C  21,O  20,C  18,C  16)    -39.62 -0.003999    1.27    -38.35   
   230. D(H  45,C  21,O  20,C  18)    -84.33  0.000340   -0.41    -84.74   
   231. D(C  28,C  21,O  20,C  18)     37.00  0.001864   -0.56     36.43   
   232. D(C  22,C  21,O  20,C  18)    160.69 -0.001038   -0.21    160.47   
   233. D(H  47,C  22,C  21,C  28)    -52.38  0.002100   -0.99    -53.37   
   234. D(H  47,C  22,C  21,O  20)   -178.29  0.002287   -1.05   -179.35   
   235. D(H  46,C  22,C  21,H  45)   -173.78 -0.001628    0.28   -173.49   
   236. D(H  46,C  22,C  21,C  28)     66.04 -0.001141    0.11     66.15   
   237. D(H  46,C  22,C  21,O  20)    -59.88 -0.000954    0.04    -59.83   
   238. D(O  23,C  22,C  21,H  45)    -51.42  0.001827   -0.82    -52.24   
   239. D(O  23,C  22,C  21,C  28)   -171.61  0.002313   -0.99   -172.60   
   240. D(H  47,C  22,C  21,H  45)     67.80  0.001613   -0.81     66.99   
   241. D(O  23,C  22,C  21,O  20)     62.48  0.002500   -1.06     61.42   
   242. D(P  24,O  23,C  22,H  47)    144.19 -0.002764    0.13    144.33   
   243. D(P  24,O  23,C  22,H  46)     27.97  0.006075   -1.76     26.20   
   244. D(P  24,O  23,C  22,C  21)    -95.19  0.000401   -0.38    -95.57   
   245. D(O  27,P  24,O  23,C  22)    126.95  0.003300   -2.65    124.30   
   246. D(O  26,P  24,O  23,C  22)   -128.68  0.001344   -2.19   -130.88   
   247. D(O  25,P  24,O  23,C  22)      1.08  0.010080   -3.74     -2.65   
   248. D(H  48,O  26,P  24,O  27)     39.42  0.003046   -0.26     39.16   
   249. D(H  48,O  26,P  24,O  25)    161.49 -0.008208    1.46    162.95   
   250. D(H  48,O  26,P  24,O  23)    -66.95  0.003948   -0.49    -67.45   
   251. D(H  49,O  27,P  24,O  26)    169.89 -0.000666   -0.19    169.70   
   252. D(H  49,O  27,P  24,O  25)     45.88  0.003360   -0.82     45.06   
   253. D(H  49,O  27,P  24,O  23)    -83.60 -0.000208   -0.44    -84.04   
   254. D(H  50,C  28,C  21,H  45)   -159.91  0.002438   -0.74   -160.65   
   255. D(H  50,C  28,C  21,C  22)    -41.08  0.000334   -0.27    -41.35   
   256. D(H  50,C  28,C  21,O  20)     80.91  0.002960   -0.81     80.10   
   257. D(C  30,C  28,C  21,H  45)     75.86 -0.000826    0.00     75.87   
   258. D(C  30,C  28,C  21,C  22)   -165.30 -0.002931    0.47   -164.84   
   259. D(C  30,C  28,C  21,O  20)    -43.31 -0.000304   -0.07    -43.39   
   260. D(O  29,C  28,C  21,H  45)    -43.26  0.000482   -0.07    -43.33   
   261. D(O  29,C  28,C  21,C  22)     75.57 -0.001623    0.39     75.96   
   262. D(O  29,C  28,C  21,O  20)   -162.44  0.001004   -0.15   -162.59   
   263. D(H  51,O  29,C  28,H  50)    -69.41  0.001092   -0.42    -69.83   
   264. D(H  51,O  29,C  28,C  30)     50.18 -0.000827    0.05     50.23   
   265. D(H  51,O  29,C  28,C  21)    170.14  0.000767   -0.21    169.94   
   266. D(H  52,C  30,C  16,C  13)   -170.92  0.002066   -0.68   -171.60   
   267. D(O  31,C  30,C  16,C  18)   -178.78 -0.004587    1.40   -177.37   
   268. D(O  31,C  30,C  16,O  17)     68.06 -0.000810    0.24     68.30   
   269. D(O  31,C  30,C  16,C  13)    -54.66 -0.001590    0.43    -54.23   
   270. D(C  28,C  30,C  16,C  18)    -55.43 -0.003019    0.75    -54.68   
   271. D(C  28,C  30,C  16,O  17)   -168.59  0.000758   -0.41   -169.01   
   272. D(H  52,C  30,C  16,O  17)    -48.20  0.002846   -0.87    -49.07   
   273. D(C  28,C  30,C  16,C  13)     68.69 -0.000022   -0.22     68.46   
   274. D(H  52,C  30,C  28,H  50)    170.11 -0.005953    1.51    171.63   
   275. D(H  52,C  30,C  28,O  29)     54.41  0.000340   -0.09     54.32   
   276. D(H  52,C  30,C  28,C  21)    -65.62 -0.003819    0.84    -64.78   
   277. D(O  31,C  30,C  28,H  50)     57.62 -0.000168   -0.14     57.48   
   278. D(O  31,C  30,C  28,O  29)    -58.08  0.006126   -1.74    -59.82   
   279. D(O  31,C  30,C  28,C  21)   -178.11  0.001966   -0.81   -178.92   
   280. D(C  16,C  30,C  28,H  50)    -68.80 -0.000947    0.41    -68.40   
   281. D(C  16,C  30,C  28,O  29)    175.50  0.005347   -1.19    174.30   
   282. D(C  16,C  30,C  28,C  21)     55.47  0.001187   -0.27     55.20   
   283. D(H  52,C  30,C  16,C  18)     64.97 -0.000932    0.29     65.25   
   284. D(H  53,O  31,C  30,H  52)     64.30  0.001251   -0.14     64.16   
   285. D(H  53,O  31,C  30,C  28)    179.39 -0.003155    0.83    180.21   
   286. D(H  53,O  31,C  30,C  16)    -54.92  0.000674   -0.00    -54.92   
    ----------------------------------------------------------------------------

         *************************************************************
         *                GEOMETRY OPTIMIZATION CYCLE   2            *
         *************************************************************
---------------------------------
CARTESIAN COORDINATES (ANGSTROEM)
---------------------------------
  O    -0.705979   -1.963728   -1.227088
  C    -0.661680   -1.044630   -0.433030
  C    -1.857432   -0.712408    0.426279
  C    -2.935307   -0.013891   -0.420946
  O    -2.458485    1.254773   -0.858430
  C    -4.234128    0.243127    0.354055
  O    -3.884580    1.030572    1.489865
  C    -4.959038   -1.034920    0.772642
  O    -6.127772   -0.840966    1.554645
  P    -7.291282    0.173742    1.161058
  O    -8.578195   -0.018743    1.853969
  O    -7.402949    0.099465   -0.431524
  O    -6.667169    1.634950    1.408582
  C     0.612684   -0.165093   -0.350693
  O     0.282317    1.155718   -0.040080
  O     1.243136   -0.190727   -1.606790
  C     1.545512   -0.688828    0.773262
  O     0.752323   -1.030576    1.914194
  C     2.477407    0.441622    1.207130
  O     2.222516    1.123505    2.171385
  O     3.573270    0.671268    0.478270
  C     4.329069   -0.411386   -0.083783
  C     5.168055    0.178290   -1.211136
  O     6.041436    1.143966   -0.672041
  P     5.562514    2.676700   -0.724726
  O     4.274752    2.971075   -1.384703
  O     6.831942    3.425414   -1.332313
  O     5.637887    3.140912    0.808455
  C     3.492185   -1.587874   -0.566989
  O     4.337881   -2.722933   -0.714603
  C     2.408649   -1.906426    0.458122
  O     1.667007   -3.025541   -0.019624
  H    -1.552490   -0.096890    1.273635
  H    -2.239613   -1.659673    0.812004
  H    -3.147488   -0.590766   -1.326277
  H    -2.628570    1.864033   -0.118375
  H    -4.882446    0.856301   -0.286931
  H    -4.703244    1.452596    1.791647
  H    -4.298586   -1.648350    1.392370
  H    -5.232511   -1.619008   -0.114805
  H    -8.118852   -0.487078   -0.700967
  H    -7.372074    2.290100    1.416197
  H    -0.362037    1.458980   -0.706908
  H     0.789112   -0.863415   -2.139960
  H     0.676229   -0.212783    2.436959
  H     5.016300   -0.747231    0.706489
  H     4.529614    0.634070   -1.976840
  H     5.761602   -0.605475   -1.689423
  H     7.574325    3.411598   -0.725620
  H     4.822515    2.879313    1.250205
  H     3.057233   -1.389183   -1.552445
  H     3.739217   -3.472216   -0.862638
  H     2.893759   -2.245400    1.388783
  H     0.981659   -3.215851    0.636087

----------------------------
CARTESIAN COORDINATES (A.U.)
----------------------------
  NO LB    ZA    FRAG    MASS        X           Y           Z
   0 O   8.0000    0    15.999   -1.334106   -3.710909   -2.318861
   1 C   6.0000    0    12.011   -1.250393   -1.974065   -0.818308
   2 C   6.0000    0    12.011   -3.510037   -1.346256    0.805551
   3 C   6.0000    0    12.011   -5.546926   -0.026249   -0.795473
   4 O   8.0000    0    15.999   -4.645864    2.371176   -1.622199
   5 C   6.0000    0    12.011   -8.001343    0.459443    0.669067
   6 O   8.0000    0    15.999   -7.340793    1.947500    2.815436
[...]
 69:    631.02   0.002709   13.69  0.001340  ( 0.033852 -0.002936 -0.013606)
 70:    643.57   0.004020   20.31  0.001949  (-0.007971 -0.018707  0.039187)
 71:    696.79   0.001024    5.18  0.000459  ( 0.007775  0.011772  0.016115)
 72:    700.45   0.001689    8.53  0.000752  (-0.020933  0.016028  0.007563)
 73:    716.99   0.000713    3.60  0.000310  ( 0.000707 -0.012498  0.012396)
 74:    721.00   0.034142  172.54  0.014777  (-0.117342  0.012594  0.029146)
 75:    740.49   0.007127   36.02  0.003004  ( 0.026248 -0.024089  0.041645)
 76:    741.94   0.000949    4.80  0.000399  ( 0.004080 -0.013816  0.013846)
 77:    807.88   0.060522  305.85  0.023378  (-0.093504 -0.118886 -0.022389)
 78:    811.51   0.010331   52.21  0.003973  ( 0.022009 -0.037626  0.045528)
 79:    825.10   0.071550  361.58  0.027061  ( 0.046564 -0.049130  0.149930)
 80:    835.89   0.028856  145.82  0.010773  ( 0.059748 -0.072159 -0.044677)
 81:    843.31   0.022688  114.65  0.008396  ( 0.020947  0.035184 -0.081969)
 82:    874.49   0.043277  218.70  0.015444  ( 0.073553  0.056375  0.082797)
 83:    888.66   0.001878    9.49  0.000659  (-0.009614 -0.013087 -0.019893)
 84:    898.90   0.012423   62.78  0.004313  (-0.027178  0.049149  0.034038)
 85:    911.22   0.066653  336.84  0.022827  (-0.069803  0.129682 -0.033715)
 86:    915.06   0.050440  254.91  0.017202  (-0.031005  0.115852 -0.053091)
 87:    920.24   0.010423   52.68  0.003535  (-0.031642  0.027084 -0.042426)
 88:    935.23   0.023531  118.92  0.007852  (-0.064228  0.001976  0.061012)
 89:    954.49   0.004592   23.21  0.001501  (-0.029989 -0.015801  0.018775)
 90:    983.68   0.015516   78.41  0.004922  (-0.010349 -0.056729 -0.039965)
 91:    992.34   0.049088  248.07  0.015437  (-0.013793 -0.080556 -0.093580)
 92:   1002.60   0.009915   50.11  0.003086  (-0.028992  0.008055  0.046698)
 93:   1032.74   0.008534   43.13  0.002579  (-0.036049 -0.015523 -0.032224)
 94:   1038.34   0.009390   47.45  0.002822  (-0.046919  0.019598  0.015386)
 95:   1041.49   0.001620    8.19  0.000485  ( 0.003166 -0.000767 -0.021788)
 96:   1048.09   0.002315   11.70  0.000689  (-0.026191  0.001673  0.000788)
 97:   1056.13   0.022647  114.45  0.006692  (-0.028905  0.073052  0.022795)
 98:   1068.86   0.013511   68.28  0.003945  ( 0.034122 -0.025137  0.046350)
 99:   1072.43   0.003941   19.91  0.001147  ( 0.026542 -0.020683 -0.003801)
100:   1084.48   0.022844  115.44  0.006574  (-0.026463  0.067209  0.036825)
101:   1098.92   0.051233  258.91  0.014549  ( 0.084947 -0.079436 -0.031982)
102:   1105.28   0.003709   18.74  0.001047  (-0.006003  0.028108  0.014870)
103:   1112.18   0.023217  117.33  0.006514  (-0.060205 -0.035513  0.040357)
104:   1119.58   0.012794   64.66  0.003566  ( 0.021988 -0.021900 -0.051020)
105:   1126.48   0.009343   47.22  0.002588  ( 0.001252  0.007040  0.050371)
106:   1139.50   0.031737  160.39  0.008692  (-0.056325 -0.073894 -0.007660)
107:   1140.70   0.039184  198.02  0.010720  (-0.010029  0.101182  0.019526)
108:   1155.90   0.038439  194.25  0.010378  ( 0.005890 -0.095136  0.035944)
109:   1167.82   0.022343  112.91  0.005970  ( 0.056909 -0.041847 -0.031315)
110:   1186.90   0.010717   54.16  0.002818  ( 0.006657  0.048123 -0.021394)
111:   1196.94   0.003074   15.53  0.000801  ( 0.025388  0.008432  0.009256)
112:   1210.39   0.004686   23.68  0.001208  ( 0.000857 -0.034563  0.003564)
113:   1214.32   0.002238   11.31  0.000575  ( 0.015800  0.005188  0.017282)
114:   1229.69   0.019955  100.84  0.005064  (-0.050391 -0.037093  0.033894)
115:   1232.51   0.023301  117.75  0.005900  ( 0.061882 -0.006598  0.045019)
116:   1243.28   0.005850   29.56  0.001468  ( 0.025077  0.005326  0.028479)
117:   1251.05   0.012628   63.82  0.003150  (-0.028862 -0.046428  0.012700)
118:   1256.07   0.032509  164.29  0.008077  (-0.062966  0.051900  0.037662)
119:   1256.89   0.010766   54.41  0.002673  ( 0.013365  0.049262  0.008219)
120:   1264.82   0.089631  452.96  0.022114  ( 0.123266  0.072897  0.040072)
121:   1277.99   0.011611   58.68  0.002835  (-0.021059  0.039949  0.028212)
122:   1282.16   0.012212   61.71  0.002972  ( 0.004985 -0.030791  0.044714)
123:   1291.22   0.025004  126.36  0.006043  (-0.076992 -0.004512  0.009739)
124:   1296.20   0.055884  282.42  0.013454  (-0.093808  0.046170  0.050226)
125:   1298.93   0.025249  127.60  0.006066  (-0.034553  0.041629  0.056027)
126:   1321.63   0.005107   25.81  0.001206  (-0.016218 -0.001730 -0.030656)
127:   1325.43   0.008984   45.40  0.002115  (-0.033392 -0.024665  0.019797)
128:   1326.18   0.002925   14.78  0.000688  (-0.015245 -0.006287 -0.020404)
129:   1332.31   0.001960    9.90  0.000459  (-0.020675  0.005511  0.001079)
130:   1335.16   0.011784   59.55  0.002754  ( 0.041858  0.013807  0.028488)
131:   1339.17   0.040373  204.03  0.009408  (-0.061829 -0.073775  0.011936)
132:   1346.17   0.003537   17.88  0.000820  (-0.017988 -0.022241  0.001322)
133:   1368.82   0.017169   86.77  0.003914  ( 0.038334 -0.047246  0.014579)
134:   1376.04   0.058900  297.66  0.013358  (-0.071255  0.001129  0.090990)
135:   1426.73   0.000381    1.93  0.000083  ( 0.004065 -0.000211  0.008178)
136:   1430.80   0.000227    1.15  0.000050  (-0.002893 -0.003462 -0.005405)
137:   1436.20   0.000061    0.31  0.000013  ( 0.003257  0.000857 -0.001347)
138:   1707.35   0.090462  457.16  0.016534  ( 0.069685 -0.008280 -0.107748)
139:   1746.20   0.055036  278.13  0.009835  ( 0.031528  0.094002  0.002243)
140:   2888.23   0.005921   29.92  0.000640  ( 0.000056 -0.023120  0.010259)
141:   2899.96   0.000014    0.07  0.000001  ( 0.000620  0.001024  0.000201)
142:   2910.83   0.002840   14.35  0.000305  ( 0.016463 -0.001581  0.005566)
143:   2923.19   0.001078    5.45  0.000115  (-0.006923 -0.008136 -0.000977)
144:   2936.23   0.005543   28.01  0.000589  (-0.014337 -0.019574 -0.000673)
145:   2948.02   0.009398   47.49  0.000995  (-0.003672 -0.031202 -0.002791)
146:   2968.04   0.003186   16.10  0.000335  ( 0.000660 -0.018205 -0.001767)
147:   2972.28   0.006245   31.56  0.000656  ( 0.000400  0.025350 -0.003587)
148:   2989.97   0.000061    0.31  0.000006  (-0.001232 -0.001595  0.001510)
149:   3015.49   0.000626    3.16  0.000065  ( 0.000967  0.007946  0.000822)
150:   3055.59   0.006258   31.62  0.000639  (-0.022455  0.011567 -0.001026)
151:   3063.77   0.148226  749.07  0.015098  (-0.097792  0.072400 -0.017107)
152:   3244.00   0.084525  427.16  0.008131  (-0.071429 -0.048854 -0.025342)
153:   3258.39   0.047547  240.28  0.004554  (-0.063698 -0.021612  0.005403)
154:   3364.94   0.049336  249.32  0.004575  ( 0.059209  0.001752  0.032659)
155:   3403.85   0.050525  255.33  0.004632  (-0.012237 -0.066387  0.008664)
156:   3413.99   0.003220   16.27  0.000294  (-0.009533  0.002130  0.014104)
157:   3446.01   0.018581   93.90  0.001683  (-0.008239  0.039933  0.004490)
158:   3527.09   0.019266   97.36  0.001705  (-0.028214  0.026638  0.014107)
159:   3612.31   0.013669   69.08  0.001181  ( 0.023389  0.010679  0.022799)
160:   3621.81   0.015972   80.71  0.001376  ( 0.007797  0.028271  0.022718)
161:   3629.49   0.018210   92.02  0.001566  ( 0.031095 -0.023634  0.006339)

* The epsilon (eps) is given for a Dirac delta lineshape.
** The dipole moment derivative (T) already includes vibrational overlap.

The first frequency considered to be a vibration is 6
The total number of vibrations considered is 156


--------------------------
THERMOCHEMISTRY AT 298.15K
--------------------------

Temperature         ... 298.15 K
Pressure            ... 1.00 atm
Total Mass          ... 516.24 AMU

Throughout the following assumptions are being made:
  (1) The electronic state is orbitally nondegenerate
  (2) There are no thermally accessible electronically excited states
  (3) Hindered rotations indicated by low frequency modes are not
      treated as such but are treated as vibrations and this may
      cause some error
  (4) All equations used are the standard statistical mechanics
      equations for an ideal gas
  (5) All vibrations are strictly harmonic

freq.      14.60  E(vib)   ...       0.57 
freq.      19.82  E(vib)   ...       0.56 
freq.      22.25  E(vib)   ...       0.56 
freq.      36.14  E(vib)   ...       0.54 
freq.      50.96  E(vib)   ...       0.52 
freq.      56.85  E(vib)   ...       0.51 
freq.      66.43  E(vib)   ...       0.50 
freq.      73.95  E(vib)   ...       0.49 
freq.      89.28  E(vib)   ...       0.47 
freq.      91.10  E(vib)   ...       0.47 
freq.      96.59  E(vib)   ...       0.47 
freq.     100.51  E(vib)   ...       0.46 
freq.     115.55  E(vib)   ...       0.44 
freq.     128.20  E(vib)   ...       0.43 
freq.     133.72  E(vib)   ...       0.42 
freq.     138.07  E(vib)   ...       0.42 
freq.     152.69  E(vib)   ...       0.40 
freq.     156.02  E(vib)   ...       0.40 
freq.     173.52  E(vib)   ...       0.38 
freq.     178.29  E(vib)   ...       0.37 
freq.     194.00  E(vib)   ...       0.36 
freq.     205.13  E(vib)   ...       0.35 
freq.     207.22  E(vib)   ...       0.34 
freq.     218.35  E(vib)   ...       0.33 
freq.     229.23  E(vib)   ...       0.32 
freq.     247.57  E(vib)   ...       0.31 
freq.     254.54  E(vib)   ...       0.30 
freq.     261.74  E(vib)   ...       0.30 
freq.     265.99  E(vib)   ...       0.29 
freq.     273.65  E(vib)   ...       0.28 
freq.     295.39  E(vib)   ...       0.27 
freq.     302.46  E(vib)   ...       0.26 
freq.     307.73  E(vib)   ...       0.26 
freq.     321.46  E(vib)   ...       0.25 
freq.     326.28  E(vib)   ...       0.24 
freq.     337.43  E(vib)   ...       0.24 
freq.     351.04  E(vib)   ...       0.23 
freq.     355.46  E(vib)   ...       0.22 
freq.     359.44  E(vib)   ...       0.22 
freq.     364.03  E(vib)   ...       0.22 
freq.     373.23  E(vib)   ...       0.21 
freq.     380.34  E(vib)   ...       0.21 
freq.     391.29  E(vib)   ...       0.20 
freq.     404.66  E(vib)   ...       0.19 
freq.     408.74  E(vib)   ...       0.19 
freq.     413.80  E(vib)   ...       0.19 
freq.     418.42  E(vib)   ...       0.18 
freq.     432.25  E(vib)   ...       0.18 
freq.     440.19  E(vib)   ...       0.17 
freq.     445.77  E(vib)   ...       0.17 
freq.     452.82  E(vib)   ...       0.16 
freq.     456.94  E(vib)   ...       0.16 
freq.     479.78  E(vib)   ...       0.15 
freq.     485.90  E(vib)   ...       0.15 
freq.     493.58  E(vib)   ...       0.14 
freq.     503.30  E(vib)   ...       0.14 
freq.     515.92  E(vib)   ...       0.13 
freq.     525.30  E(vib)   ...       0.13 
freq.     531.04  E(vib)   ...       0.13 
freq.     540.34  E(vib)   ...       0.12 
freq.     561.82  E(vib)   ...       0.11 
freq.     588.32  E(vib)   ...       0.10 
freq.     595.12  E(vib)   ...       0.10 
freq.     631.02  E(vib)   ...       0.09 
freq.     643.57  E(vib)   ...       0.09 
freq.     696.79  E(vib)   ...       0.07 
freq.     700.45  E(vib)   ...       0.07 
freq.     716.99  E(vib)   ...       0.07 
freq.     721.00  E(vib)   ...       0.07 
freq.     740.49  E(vib)   ...       0.06 
freq.     741.94  E(vib)   ...       0.06 
freq.     807.88  E(vib)   ...       0.05 
freq.     811.51  E(vib)   ...       0.05 
freq.     825.10  E(vib)   ...       0.04 
freq.     835.89  E(vib)   ...       0.04 
freq.     843.31  E(vib)   ...       0.04 
freq.     874.49  E(vib)   ...       0.04 
freq.     888.66  E(vib)   ...       0.04 
freq.     898.90  E(vib)   ...       0.03 
freq.     911.22  E(vib)   ...       0.03 
freq.     915.06  E(vib)   ...       0.03 
freq.     920.24  E(vib)   ...       0.03 
freq.     935.23  E(vib)   ...       0.03 
freq.     954.49  E(vib)   ...       0.03 
freq.     983.68  E(vib)   ...       0.02 
freq.     992.34  E(vib)   ...       0.02 
freq.    1002.60  E(vib)   ...       0.02 
freq.    1032.74  E(vib)   ...       0.02 
freq.    1038.34  E(vib)   ...       0.02 
freq.    1041.49  E(vib)   ...       0.02 
freq.    1048.09  E(vib)   ...       0.02 
freq.    1056.13  E(vib)   ...       0.02 
freq.    1068.86  E(vib)   ...       0.02 
freq.    1072.43  E(vib)   ...       0.02 
freq.    1084.48  E(vib)   ...       0.02 
freq.    1098.92  E(vib)   ...       0.02 
freq.    1105.28  E(vib)   ...       0.02 
freq.    1112.18  E(vib)   ...       0.01 
freq.    1119.58  E(vib)   ...       0.01 
freq.    1126.48  E(vib)   ...       0.01 
freq.    1139.50  E(vib)   ...       0.01 
freq.    1140.70  E(vib)   ...       0.01 
freq.    1155.90  E(vib)   ...       0.01 
freq.    1167.82  E(vib)   ...       0.01 
freq.    1186.90  E(vib)   ...       0.01 
freq.    1196.94  E(vib)   ...       0.01 
freq.    1210.39  E(vib)   ...       0.01 
freq.    1214.32  E(vib)   ...       0.01 
freq.    1229.69  E(vib)   ...       0.01 
freq.    1232.51  E(vib)   ...       0.01 
freq.    1243.28  E(vib)   ...       0.01 
freq.    1251.05  E(vib)   ...       0.01 
freq.    1256.07  E(vib)   ...       0.01 
freq.    1256.89  E(vib)   ...       0.01 
freq.    1264.82  E(vib)   ...       0.01 
freq.    1277.99  E(vib)   ...       0.01 
freq.    1282.16  E(vib)   ...       0.01 
freq.    1291.22  E(vib)   ...       0.01 
freq.    1296.20  E(vib)   ...       0.01 
freq.    1298.93  E(vib)   ...       0.01 
freq.    1321.63  E(vib)   ...       0.01 
freq.    1325.43  E(vib)   ...       0.01 
freq.    1326.18  E(vib)   ...       0.01 
freq.    1332.31  E(vib)   ...       0.01 
freq.    1335.16  E(vib)   ...       0.01 
freq.    1339.17  E(vib)   ...       0.01 
freq.    1346.17  E(vib)   ...       0.01 
freq.    1368.82  E(vib)   ...       0.01 
freq.    1376.04  E(vib)   ...       0.01 
freq.    1426.73  E(vib)   ...       0.00 
freq.    1430.80  E(vib)   ...       0.00 
freq.    1436.20  E(vib)   ...       0.00 
freq.    1707.35  E(vib)   ...       0.00 
freq.    1746.20  E(vib)   ...       0.00 
freq.    2888.23  E(vib)   ...       0.00 
freq.    2899.96  E(vib)   ...       0.00 
freq.    2910.83  E(vib)   ...       0.00 
freq.    2923.19  E(vib)   ...       0.00 
freq.    2936.23  E(vib)   ...       0.00 
freq.    2948.02  E(vib)   ...       0.00 
freq.    2968.04  E(vib)   ...       0.00 
freq.    2972.28  E(vib)   ...       0.00 
freq.    2989.97  E(vib)   ...       0.00 
freq.    3015.49  E(vib)   ...       0.00 
freq.    3055.59  E(vib)   ...       0.00 
freq.    3063.77  E(vib)   ...       0.00 
freq.    3244.00  E(vib)   ...       0.00 
freq.    3258.39  E(vib)   ...       0.00 
freq.    3364.94  E(vib)   ...       0.00 
freq.    3403.85  E(vib)   ...       0.00 
freq.    3413.99  E(vib)   ...       0.00 
freq.    3446.01  E(vib)   ...       0.00 
freq.    3527.09  E(vib)   ...       0.00 
freq.    3612.31  E(vib)   ...       0.00 
freq.    3621.81  E(vib)   ...       0.00 
freq.    3629.49  E(vib)   ...       0.00 

------------
INNER ENERGY
------------

The inner energy is: U= E(el) + E(ZPE) + E(vib) + E(rot) + E(trans)
    E(el)   - is the total energy from the electronic structure calculation
              = E(kin-el) + E(nuc-el) + E(el-el) + E(nuc-nuc)
    E(ZPE)  - the the zero temperature vibrational energy from the frequency calculation
    E(vib)  - the the finite temperature correction to E(ZPE) due to population
              of excited vibrational states
    E(rot)  - is the rotational thermal energy
    E(trans)- is the translational thermal energy

Summary of contributions to the inner energy U:
Electronic energy                ...   -115.49019715 Eh
Zero point energy                ...      0.38025886 Eh     238.62 kcal/mol
Thermal vibrational correction   ...      0.03222743 Eh      20.22 kcal/mol
Thermal rotational correction    ...      0.00141627 Eh       0.89 kcal/mol
Thermal translational correction ...      0.00141627 Eh       0.89 kcal/mol
-----------------------------------------------------------------------
Total thermal energy                   -115.07487831 Eh


Summary of corrections to the electronic energy:
(perhaps to be used in another calculation)
Total thermal correction                  0.03505997 Eh      22.00 kcal/mol
Non-thermal (ZPE) correction              0.38025886 Eh     238.62 kcal/mol
-----------------------------------------------------------------------
Total correction                          0.41531883 Eh     260.62 kcal/mol


--------
ENTHALPY
--------

The enthalpy is H = U + kB*T
                kB is Boltzmann's constant
Total free energy                 ...   -115.07487831 Eh 
Thermal Enthalpy correction       ...      0.00094421 Eh       0.59 kcal/mol
-----------------------------------------------------------------------
Total Enthalpy                    ...   -115.07393410 Eh


Note: Only C1 symmetry has been detected, increase convergence thresholds 
      if your molecule has a higher symmetry. Symmetry factor of 1.0 is   
      used for the rotational entropy correction. 
 

Note: Rotational entropy computed according to Herzberg 
Infrared and Raman Spectra, Chapter V,1, Van Nostrand Reinhold, 1945 
Point Group:  C1, Symmetry Number:   1  
Rotational constants in cm-1:     0.007278     0.002438     0.002035 

Vibrational entropy computed according to the QRRHO of S. Grimme
Chem.Eur.J. 2012 18 9955


-------
ENTROPY
-------

The entropy contributions are T*S = T*(S(el)+S(vib)+S(rot)+S(trans))
     S(el)   - electronic entropy
     S(vib)  - vibrational entropy
     S(rot)  - rotational entropy
     S(trans)- translational entropy
The entropies will be listed as multiplied by the temperature to get
units of energy

Electronic entropy                ...      0.00000000 Eh      0.00 kcal/mol
Vibrational entropy               ...      0.05739900 Eh     36.02 kcal/mol
Rotational entropy                ...      0.01760094 Eh     11.04 kcal/mol
Translational entropy             ...      0.02119591 Eh     13.30 kcal/mol
-----------------------------------------------------------------------
Final entropy term                ...      0.09619584 Eh     60.36 kcal/mol

In case the symmetry of your molecule has not been determined correctly
or in case you have a reason to use a different symmetry number we print 
out the resulting rotational entropy values for sn=1,12 :
 --------------------------------------------------------
|  sn= 1 | S(rot)=       0.01760094 Eh     11.04 kcal/mol|
|  sn= 2 | S(rot)=       0.01694648 Eh     10.63 kcal/mol|
|  sn= 3 | S(rot)=       0.01656365 Eh     10.39 kcal/mol|
|  sn= 4 | S(rot)=       0.01629203 Eh     10.22 kcal/mol|
|  sn= 5 | S(rot)=       0.01608134 Eh     10.09 kcal/mol|
|  sn= 6 | S(rot)=       0.01590919 Eh      9.98 kcal/mol|
|  sn= 7 | S(rot)=       0.01576365 Eh      9.89 kcal/mol|
|  sn= 8 | S(rot)=       0.01563757 Eh      9.81 kcal/mol|
|  sn= 9 | S(rot)=       0.01552636 Eh      9.74 kcal/mol|
|  sn=10 | S(rot)=       0.01542688 Eh      9.68 kcal/mol|
|  sn=11 | S(rot)=       0.01533689 Eh      9.62 kcal/mol|
|  sn=12 | S(rot)=       0.01525474 Eh      9.57 kcal/mol|
 --------------------------------------------------------


-------------------
GIBBS FREE ENERGY
-------------------

The Gibbs free energy is G = H - T*S

Total enthalpy                    ...   -115.07393410 Eh 
Total entropy correction          ...     -0.09619584 Eh    -60.36 kcal/mol
-----------------------------------------------------------------------
Final Gibbs free energy         ...   -115.17012995 Eh

For completeness - the Gibbs free energy minus the electronic energy
G-E(el)                           ...      0.32006720 Eh    200.84 kcal/mol



Timings for individual modules:

Sum of individual times         ...      843.454 sec (=  14.058 min)
Geometry relaxation             ...       12.682 sec (=   0.211 min)   1.5 %
Numerical frequency calculation ...      821.775 sec (=  13.696 min)  97.4 %
XTB module                      ...        8.997 sec (=   0.150 min)   1.1 %
                             ****ORCA TERMINATED NORMALLY****
TOTAL RUN TIME: 0 days 0 hours 14 minutes 12 seconds 684 msec
