
                                 *****************
                                 * O   R   C   A *
                                 *****************

                                            #,                                       
                                            ###                                      
                                            ####                                     
                                            #####                                    
                                            ######                                   
                                           ########,                                 
                                     ,,################,,,,,                         
                               ,,#################################,,                 
                          ,,##########################################,,             
                       ,#########################################, ''#####,          
                    ,#############################################,,   '####,        
                  ,##################################################,,,,####,       
                ,###########''''           ''''###############################       
              ,#####''   ,,,,##########,,,,          '''####'''          '####       
            ,##' ,,,,###########################,,,                        '##       
           ' ,,###''''                  '''############,,,                           
         ,,##''                                '''############,,,,        ,,,,,,###''
      ,#''                                            '''#######################'''  
     '                                                          ''''####''''         
             ,#######,   #######,   ,#######,      ##                                
            ,#'     '#,  ##    ##  ,#'     '#,    #''#        ######   ,####,        
            ##       ##  ##   ,#'  ##            #'  '#       #        #'  '#        
            ##       ##  #######   ##           ,######,      #####,   #    #        
            '#,     ,#'  ##    ##  '#,     ,#' ,#      #,         ##   #,  ,#        
             '#######'   ##     ##  '#######'  #'      '#     #####' # '####'        



                  #######################################################
                  #                        -***-                        #
                  #          Department of theory and spectroscopy      #
                  #    Directorship and core code : Frank Neese         #
                  #        Max Planck Institute fuer Kohlenforschung    #
                  #                Kaiser Wilhelm Platz 1               #
                  #                 D-45470 Muelheim/Ruhr               #
                  #                      Germany                        #
                  #                                                     #
                  #                  All rights reserved                #
                  #                        -***-                        #
                  #######################################################


                         Program Version 5.0.3 -  RELEASE  -


 With contributions from (in alphabetic order):
   Daniel Aravena         : Magnetic Suceptibility
   Michael Atanasov       : Ab Initio Ligand Field Theory (pilot matlab implementation)
   Alexander A. Auer      : GIAO ZORA, VPT2 properties, NMR spectrum
   Ute Becker             : Parallelization
   Giovanni Bistoni       : ED, misc. LED, open-shell LED, HFLD
   Martin Brehm           : Molecular dynamics
   Dmytro Bykov           : SCF Hessian
   Vijay G. Chilkuri      : MRCI spin determinant printing, contributions to CSF-ICE
   Dipayan Datta          : RHF DLPNO-CCSD density
   Achintya Kumar Dutta   : EOM-CC, STEOM-CC
   Dmitry Ganyushin       : Spin-Orbit,Spin-Spin,Magnetic field MRCI
   Miquel Garcia          : C-PCM and meta-GGA Hessian, CC/C-PCM, Gaussian charge scheme
   Yang Guo               : DLPNO-NEVPT2, F12-NEVPT2, CIM, IAO-localization
   Andreas Hansen         : Spin unrestricted coupled pair/coupled cluster methods
   Benjamin Helmich-Paris : MC-RPA, TRAH-SCF, COSX integrals
   Lee Huntington         : MR-EOM, pCC
   Robert Izsak           : Overlap fitted RIJCOSX, COSX-SCS-MP3, EOM
   Marcus Kettner         : VPT2
   Christian Kollmar      : KDIIS, OOCD, Brueckner-CCSD(T), CCSD density, CASPT2, CASPT2-K
   Simone Kossmann        : Meta GGA functionals, TD-DFT gradient, OOMP2, MP2 Hessian
   Martin Krupicka        : Initial AUTO-CI
   Lucas Lang             : DCDCAS
   Marvin Lechner         : AUTO-CI (C++ implementation), FIC-MRCC
   Dagmar Lenk            : GEPOL surface, SMD
   Dimitrios Liakos       : Extrapolation schemes; Compound Job, initial MDCI parallelization
   Dimitrios Manganas     : Further ROCIS development; embedding schemes
   Dimitrios Pantazis     : SARC Basis sets
   Anastasios Papadopoulos: AUTO-CI, single reference methods and gradients
   Taras Petrenko         : DFT Hessian,TD-DFT gradient, ASA, ECA, R-Raman, ABS, FL, XAS/XES, NRVS
   Peter Pinski           : DLPNO-MP2, DLPNO-MP2 Gradient
   Christoph Reimann      : Effective Core Potentials
   Marius Retegan         : Local ZFS, SOC
   Christoph Riplinger    : Optimizer, TS searches, QM/MM, DLPNO-CCSD(T), (RO)-DLPNO pert. Triples
   Tobias Risthaus        : Range-separated hybrids, TD-DFT gradient, RPA, STAB
   Michael Roemelt        : Original ROCIS implementation
   Masaaki Saitow         : Open-shell DLPNO-CCSD energy and density
   Barbara Sandhoefer     : DKH picture change effects
   Avijit Sen             : IP-ROCIS
   Kantharuban Sivalingam : CASSCF convergence, NEVPT2, FIC-MRCI
   Bernardo de Souza      : ESD, SOC TD-DFT
   Georgi Stoychev        : AutoAux, RI-MP2 NMR, DLPNO-MP2 response
   Willem Van den Heuvel  : Paramagnetic NMR
   Boris Wezisla          : Elementary symmetry handling
   Frank Wennmohs         : Technical directorship


 We gratefully acknowledge several colleagues who have allowed us to
 interface, adapt or use parts of their codes:
   Stefan Grimme, W. Hujo, H. Kruse, P. Pracht,  : VdW corrections, initial TS optimization,
                  C. Bannwarth, S. Ehlert          DFT functionals, gCP, sTDA/sTD-DF
   Ed Valeev, F. Pavosevic, A. Kumar             : LibInt (2-el integral package), F12 methods
   Garnet Chan, S. Sharma, J. Yang, R. Olivares  : DMRG
   Ulf Ekstrom                                   : XCFun DFT Library
   Mihaly Kallay                                 : mrcc  (arbitrary order and MRCC methods)
   Jiri Pittner, Ondrej Demel                    : Mk-CCSD
   Frank Weinhold                                : gennbo (NPA and NBO analysis)
   Christopher J. Cramer and Donald G. Truhlar   : smd solvation model
   Lars Goerigk                                  : TD-DFT with DH, B97 family of functionals
   V. Asgeirsson, H. Jonsson                     : NEB implementation
   FAccTs GmbH                                   : IRC, NEB, NEB-TS, DLPNO-Multilevel, CI-OPT
                                                   MM, QMMM, 2- and 3-layer-ONIOM, Crystal-QMMM,
                                                   LR-CPCM, SF, NACMEs, symmetry and pop. for TD-DFT,
                                                   nearIR, NL-DFT gradient (VV10), updates on ESD,
                                                   ML-optimized integration grids
   S Lehtola, MJT Oliveira, MAL Marques          : LibXC Library
   Liviu Ungur et al                             : ANISO software


 Your calculation uses the libint2 library for the computation of 2-el integrals
 For citations please refer to: http://libint.valeyev.net

 Your ORCA version has been built with support for libXC version: 5.1.0
 For citations please refer to: https://tddft.org/programs/libxc/

 This ORCA versions uses:
   CBLAS   interface :  Fast vector & matrix operations
   LAPACKE interface :  Fast linear algebra routines
   SCALAPACK package :  Parallel linear algebra routines
   Shared memory     :  Shared parallel matrices
   BLAS/LAPACK       :  OpenBLAS 0.3.15  USE64BITINT DYNAMIC_ARCH NO_AFFINITY Haswell SINGLE_THREADED
        Core in use  :  Haswell
   Copyright (c) 2011-2014, The OpenBLAS Project


Your calculation utilizes the semiempirical GFN2-xTB method
Please cite in your paper:
C. Bannwarth, Ehlert S., S. Grimme,  J. Chem. Theory Comput., 15, (2019), 1652.
   

================================================================================

================================================================================
                                        WARNINGS
                       Please study these warnings very carefully!
================================================================================


WARNING: Geometry Optimization
  ===> : Switching off AutoStart
         For restart on a previous wavefunction, please use MOREAD

WARNING: Found dipole moment calculation with XTB calculation
  ===> : Switching off dipole moment calculation


WARNING: TRAH-SCF for XTB is not implemented!
  ===> : Turning TRAH off!

================================================================================
                                       INPUT FILE
================================================================================
NAME = /tmp/18.inp
|  1> ! XTB2 opt numfreq
|  2> * XYZ 0 1
|  3> O 1.9482 -0.4197 2.7136
|  4> C 1.4826 0.4797 2.0292
|  5> O 1.6548 1.7765 2.3536
|  6> C 0.6732 0.2513 0.7457
|  7> O 0.5679 -1.1768 0.5338
|  8> C 1.4479 0.8306 -0.4709
|  9> C 2.8485 0.2234 -0.6915
| 10> O 3.7437 0.6731 0.3281
| 11> C 3.4049 0.5645 -2.0988
| 12> O 2.5786 -0.0610 -3.0871
| 13> C 4.8577 0.1115 -2.3033
| 14> O 4.9778 -1.2345 -1.8654
| 15> P 6.2000 -1.5937 -0.8968
| 16> O 7.5251 -1.6924 -1.5686
| 17> O 6.1169 -0.5567 0.3090
| 18> O 5.7528 -2.9606 -0.2087
| 19> C -0.7703 0.8693 0.8528
| 20> O -0.6769 2.3258 0.8273
| 21> C -1.4347 0.5460 2.1992
| 22> O -0.8907 0.8303 3.2653
| 23> O -2.6449 -0.0440 2.2009
| 24> C -3.6620 0.2350 1.2041
| 25> C -4.3941 -1.0874 0.9290
| 26> O -5.4997 -0.8930 0.0625
| 27> P -6.9383 -0.7089 0.7343
| 28> O -7.0677 0.3311 1.7885
| 29> O -7.8883 -0.4744 -0.5252
| 30> O -7.3604 -2.1778 1.1859
| 31> C -3.1269 0.9043 -0.0702
| 32> O -3.2283 2.3317 0.0613
| 33> C -1.6854 0.4576 -0.3301
| 34> O -1.6913 -0.9368 -0.6327
| 35> H 2.1178 1.7304 3.2218
| 36> H 1.0278 -1.6115 1.2890
| 37> H 0.8578 0.6390 -1.3742
| 38> H 1.5485 1.9180 -0.3648
| 39> H 2.7767 -0.8661 -0.6010
| 40> H 3.7862 1.6479 0.2872
| 41> H 3.3549 1.6457 -2.2712
| 42> H 2.8166 -1.0086 -3.0994
| 43> H 5.1259 0.1414 -3.3644
| 44> H 5.5430 0.7681 -1.7574
| 45> H 5.2048 -0.4616 0.6594
| 46> H 6.2894 -3.6977 -0.5564
| 47> H -0.1274 2.5859 1.6014
| 48> H -4.3740 0.9178 1.6837
| 49> H -3.7270 -1.8246 0.4722
| 50> H -4.7235 -1.5376 1.8741
| 51> H -7.8146 0.4397 -0.8531
| 52> H -8.2645 -2.1834 1.5452
| 53> H -3.7593 0.6433 -0.9254
| 54> H -2.3489 2.7027 0.2829
| 55> H -1.3452 0.9822 -1.2313
| 56> H -0.7854 -1.2949 -0.5084
| 57> *
| 58> 
| 59>                          ****END OF INPUT****
================================================================================

                       *****************************
                       * Geometry Optimization Run *
                       *****************************

Geometry optimization settings:
Update method            Update   .... BFGS
Choice of coordinates    CoordSys .... Z-matrix Internals
Initial Hessian          InHess   .... Almoef's Model

Convergence Tolerances:
Energy Change            TolE     ....  5.0000e-06 Eh
Max. Gradient            TolMAXG  ....  3.0000e-04 Eh/bohr
RMS Gradient             TolRMSG  ....  1.0000e-04 Eh/bohr
Max. Displacement        TolMAXD  ....  4.0000e-03 bohr
RMS Displacement         TolRMSD  ....  2.0000e-03 bohr
Strict Convergence                ....  False
------------------------------------------------------------------------------
                        ORCA OPTIMIZATION COORDINATE SETUP
------------------------------------------------------------------------------

The optimization will be done in new redundant internal coordinates
Making redundant internal coordinates   ...  (new redundants) done
Evaluating the initial hessian          ...  (Almloef) done
Evaluating the coordinates              ...  done
Calculating the B-matrix                .... done
Calculating the G-matrix                .... done
Diagonalizing the G-matrix              .... done
Small eigenvalue found = 2.019e-03
Small eigenvalue found = 3.136e-03
Small eigenvalue found = 7.297e-03
Small eigenvalue found = 7.829e-03
Small eigenvalue found = 1.170e-02
Small eigenvalue found = 1.596e-02
Small eigenvalue found = 2.178e-02
Small eigenvalue found = 2.322e-02
The first mode is                       ....  133
The number of degrees of freedom        ....  156

    -----------------------------------------------------------------
                    Redundant Internal Coordinates


    -----------------------------------------------------------------
         Definition                    Initial Value    Approx d2E/dq
    -----------------------------------------------------------------
      1. B(C   1,O   0)                  1.2223         1.036028   
      2. B(O   2,C   1)                  1.3478         0.653424   
      3. B(C   3,C   1)                  1.5345         0.367460   
      4. B(O   4,C   3)                  1.4476         0.452925   
      5. B(C   5,C   3)                  1.5543         0.341665   
      6. B(C   6,C   5)                  1.5424         0.356923   
      7. B(O   7,C   6)                  1.4294         0.484181   
      8. B(C   8,C   6)                  1.5513         0.345502   
      9. B(O   9,C   8)                  1.4320         0.479504   
     10. B(C  10,C   8)                  1.5355         0.366148   
     11. B(O  11,C  10)                  1.4205         0.500232   
     12. B(P  12,O  11)                  1.6003         0.868635   
     13. B(O  13,P  12)                  1.4889         1.307719   
     14. B(O  14,P  12)                  1.5926         0.893732   
     15. B(O  15,P  12)                  1.5943         0.887923   
     16. B(C  16,C   3)                  1.5739         0.317962   
     17. B(O  17,C  16)                  1.4597         0.433162   
     18. B(C  18,C  16)                  1.5358         0.365672   
     19. B(O  19,C  18)                  1.2302         1.006619   
     20. B(O  20,C  18)                  1.3464         0.656900   
     21. B(C  21,O  20)                  1.4512         0.446947   
     22. B(C  22,C  21)                  1.5364         0.364952   
     23. B(O  23,C  22)                  1.4181         0.504740   
     24. B(P  24,O  23)                  1.5984         0.874848   
     25. B(O  25,P  24)                  1.4865         1.319502   
     26. B(O  26,P  24)                  1.5949         0.885936   
     27. B(O  27,P  24)                  1.5937         0.890082   
     28. B(C  28,C  21)                  1.5356         0.365938   
     29. B(O  29,C  28)                  1.4370         0.470812   
     30. B(C  30,C  28)                  1.5313         0.371736   
     31. B(C  30,C  16)                  1.5512         0.345611   
     32. B(O  31,C  30)                  1.4269         0.488714   
     33. B(H  32,O   2)                  0.9850         0.474294   
     34. B(H  33,O   4)                  0.9853         0.473823   
     35. B(H  34,C   5)                  1.0958         0.352448   
     36. B(H  35,C   5)                  1.0972         0.350719   
     37. B(H  36,C   6)                  1.0956         0.352758   
     38. B(H  37,O   7)                  0.9766         0.489226   
     39. B(H  38,C   8)                  1.0960         0.352250   
     40. B(H  39,O   9)                  0.9771         0.488283   
     41. B(H  40,C  10)                  1.0949         0.353704   
     42. B(H  41,C  10)                  1.0949         0.353699   
     43. B(H  42,H  32)                  4.5717         0.000000   
     44. B(H  42,O  14)                  0.9817         0.480101   
     45. B(H  43,O  15)                  0.9758         0.490667   
     46. B(H  44,O  17)                  0.9843         0.475564   
     47. B(H  45,C  21)                  1.0969         0.351095   
     48. B(H  46,C  22)                  1.0941         0.354659   
     49. B(H  47,C  22)                  1.0975         0.350377   
     50. B(H  48,O  26)                  0.9739         0.494027   
     51. B(H  49,O  27)                  0.9729         0.495899   
     52. B(H  50,C  28)                  1.0952         0.353313   
     53. B(H  51,O  29)                  0.9798         0.483402   
     54. B(H  52,C  30)                  1.0969         0.351138   
     55. B(H  53,O  31)                  0.9820         0.479572   
     56. A(O   2,C   1,C   3)          114.3256         0.396649   
     57. A(O   0,C   1,C   3)          124.0369         0.430478   
     58. A(O   0,C   1,O   2)          121.6365         0.474794   
     59. A(C   1,O   2,H  32)          103.1303         0.367620   
     60. A(C   5,C   3,C  16)          111.3491         0.348231   
     61. A(O   4,C   3,C   5)          106.8204         0.367532   
     62. A(O   4,C   3,C  16)          109.3067         0.363036   
     63. A(C   1,C   3,C   5)          109.6530         0.356860   
     64. A(C   1,C   3,O   4)          107.9177         0.372158   
     65. A(C   1,C   3,C  16)          111.6178         0.352537   
     66. A(C   3,O   4,H  33)          106.8042         0.345382   
     67. A(C   3,C   5,H  35)          109.8398         0.318237   
     68. A(C   6,C   5,H  34)          107.5931         0.320773   
     69. A(C   3,C   5,H  34)          108.1581         0.318493   
     70. A(H  34,C   5,H  35)          107.5998         0.288664   
     71. A(C   6,C   5,H  35)          108.7070         0.320515   
     72. A(C   3,C   5,C   6)          114.6971         0.355102   
     73. A(O   7,C   6,H  36)          107.1560         0.335341   
     74. A(C   5,C   6,H  36)          108.6721         0.320819   
     75. A(C   8,C   6,H  36)          108.4877         0.319119   
     76. A(O   7,C   6,C   8)          110.6893         0.372487   
     77. A(C   5,C   6,O   7)          110.0490         0.374581   
     78. A(C   5,C   6,C   8)          111.6469         0.355776   
     79. A(C   6,O   7,H  37)          108.1444         0.351176   
     80. A(O   9,C   8,C  10)          108.9755         0.375605   
     81. A(C   6,C   8,C  10)          113.2858         0.357321   
     82. A(C   6,C   8,O   9)          108.8495         0.371864   
     83. A(C  10,C   8,H  38)          108.2555         0.322086   
     84. A(C   6,C   8,H  38)          110.0753         0.319044   
     85. A(O   9,C   8,H  38)          107.2180         0.334720   
     86. A(C   8,O   9,H  39)          106.9621         0.350486   
     87. A(C   8,C  10,O  11)          108.5713         0.378363   
     88. A(C   8,C  10,H  41)          110.4191         0.322303   
     89. A(H  40,C  10,H  41)          108.2709         0.289208   
     90. A(O  11,C  10,H  41)          111.1997         0.337315   
     91. A(O  11,C  10,H  40)          107.6933         0.337316   
     92. A(C   8,C  10,H  40)          110.6580         0.322303   
     93. A(C  10,O  11,P  12)          117.6346         0.468163   
     94. A(O  13,P  12,O  15)          112.8007         0.603633   
     95. A(O  14,P  12,O  15)          102.5243         0.561153   
     96. A(O  13,P  12,O  14)          115.5452         0.604393   
     97. A(O  11,P  12,O  15)          103.8536         0.558119   
     98. A(O  11,P  12,O  14)          105.7990         0.558812   
     99. A(O  11,P  12,O  13)          114.9280         0.601081   
    100. A(P  12,O  14,H  42)          112.4457         0.414871   
    101. A(P  12,O  15,H  43)          109.8525         0.415998   
    102. A(O  17,C  16,C  18)          104.6573         0.369004   
    103. A(C   3,C  16,C  18)          111.9480         0.352246   
    104. A(C   3,C  16,O  17)          109.3855         0.360283   
    105. A(C  18,C  16,C  30)          110.9436         0.357261   
    106. A(O  17,C  16,C  30)          106.8132         0.365451   
    107. A(C   3,C  16,C  30)          112.6413         0.348905   
    108. A(C  16,O  17,H  44)          106.5978         0.343017   
    109. A(O  19,C  18,O  20)          119.8461         0.472748   
    110. A(C  16,C  18,O  20)          118.8297         0.396679   
    111. A(C  16,C  18,O  19)          121.3180         0.427885   
    112. A(C  18,O  20,C  21)          123.0162         0.408328   
    113. A(O  20,C  21,C  28)          114.1776         0.371043   
    114. A(C  22,C  21,C  28)          113.1170         0.360632   
    115. A(C  28,C  21,H  45)          108.5242         0.321883   
    116. A(C  22,C  21,H  45)          107.7448         0.321740   
    117. A(O  20,C  21,H  45)          105.9196         0.330660   
    118. A(O  20,C  21,C  22)          106.9472         0.370871   
    119. A(H  46,C  22,H  47)          105.4349         0.288903   
    120. A(C  21,C  22,H  47)          109.9938         0.321633   
    121. A(O  23,C  22,H  47)          110.3917         0.337289   
    122. A(O  23,C  22,H  46)          108.2165         0.337973   
    123. A(C  21,C  22,H  46)          111.3560         0.322273   
    124. A(C  21,C  22,O  23)          111.2802         0.378737   
    125. A(C  22,O  23,P  24)          117.4311         0.469547   
    126. A(O  26,P  24,O  27)          101.6265         0.560477   
    127. A(O  25,P  24,O  27)          114.8875         0.604963   
    128. A(O  23,P  24,O  27)          104.5560         0.559134   
    129. A(O  25,P  24,O  26)          113.9109         0.604418   
    130. A(O  23,P  24,O  26)          102.7750         0.558638   
    131. A(O  23,P  24,O  25)          117.1940         0.602951   
    132. A(P  24,O  26,H  48)          111.0261         0.416337   
    133. A(P  24,O  27,H  49)          110.8602         0.416964   
    134. A(O  29,C  28,C  30)          111.8207         0.375401   
    135. A(C  21,C  28,C  30)          109.9813         0.361767   
    136. A(C  30,C  28,H  50)          109.9691         0.323046   
    137. A(O  29,C  28,H  50)          105.5115         0.333871   
    138. A(C  21,C  28,O  29)          109.4149         0.374384   
    139. A(C  21,C  28,H  50)          110.0542         0.322215   
    140. A(C  28,O  29,H  51)          109.4790         0.348814   
    141. A(C  28,C  30,O  31)          108.4917         0.377830   
    142. A(C  16,C  30,O  31)          115.0579         0.373105   
    143. A(C  16,C  30,C  28)          110.3944         0.358262   
    144. A(O  31,C  30,H  52)          107.1234         0.335604   
    145. A(C  28,C  30,H  52)          106.9712         0.322719   
    146. A(C  16,C  30,H  52)          108.4597         0.318896   
    147. A(C  30,O  31,H  53)          109.0083         0.350547   
    148. D(H  32,O   2,C   1,O   0)     -4.8684         0.031582   
    149. D(H  32,O   2,C   1,C   3)    175.4718         0.031582   
    150. D(O   4,C   3,C   1,O   0)      0.6304         0.010122   
    151. D(O   4,C   3,C   1,O   2)   -179.7192         0.010122   
    152. D(C   5,C   3,C   1,O   0)   -115.3718         0.010122   
    153. D(C  16,C   3,C   1,O   2)    -59.5935         0.010122   
    154. D(C  16,C   3,C   1,O   0)    120.7561         0.010122   
    155. D(C   5,C   3,C   1,O   2)     64.2786         0.010122   
    156. D(H  33,O   4,C   3,C   5)    119.2735         0.016157   
    157. D(H  33,O   4,C   3,C  16)   -120.1367         0.016157   
    158. D(H  33,O   4,C   3,C   1)      1.4331         0.016157   
    159. D(H  34,C   5,C   3,O   4)     62.3208         0.009443   
    160. D(H  34,C   5,C   3,C   1)    179.0159         0.009443   
    161. D(C   6,C   5,C   3,C  16)   -177.0180         0.009443   
    162. D(C   6,C   5,C   3,O   4)    -57.7423         0.009443   
    163. D(H  35,C   5,C   3,O   4)    179.4905         0.009443   
    164. D(H  35,C   5,C   3,C   1)    -63.8143         0.009443   
    165. D(C   6,C   5,C   3,C   1)     58.9528         0.009443   
    166. D(H  35,C   5,C   3,C  16)     60.2148         0.009443   
    167. D(H  34,C   5,C   3,C  16)    -56.9549         0.009443   
    168. D(H  36,C   6,C   5,H  35)    169.0214         0.010233   
    169. D(H  36,C   6,C   5,H  34)    -74.7300         0.010233   
    170. D(C   8,C   6,C   5,H  35)    -71.3593         0.010233   
    171. D(C   8,C   6,C   5,C   3)    165.2653         0.010233   
    172. D(C   8,C   6,C   5,H  34)     44.8893         0.010233   
    173. D(O   7,C   6,C   5,H  35)     51.9708         0.010233   
    174. D(O   7,C   6,C   5,H  34)    168.2195         0.010233   
    175. D(H  36,C   6,C   5,C   3)     45.6459         0.010233   
    176. D(O   7,C   6,C   5,C   3)    -71.4046         0.010233   
    177. D(H  37,O   7,C   6,C   5)    -59.4158         0.018501   
    178. D(H  37,O   7,C   6,C   8)     64.4723         0.018501   
    179. D(H  37,O   7,C   6,H  36)   -177.4070         0.018501   
    180. D(H  38,C   8,C   6,H  36)    172.0249         0.009638   
    181. D(H  38,C   8,C   6,O   7)    -70.6694         0.009638   
    182. D(H  38,C   8,C   6,C   5)     52.2968         0.009638   
    183. D(C  10,C   8,C   6,H  36)    -66.6174         0.009638   
    184. D(C  10,C   8,C   6,O   7)     50.6883         0.009638   
    185. D(C  10,C   8,C   6,C   5)    173.6544         0.009638   
    186. D(O   9,C   8,C   6,H  36)     54.7809         0.009638   
    187. D(O   9,C   8,C   6,O   7)    172.0866         0.009638   
    188. D(O   9,C   8,C   6,C   5)    -64.9472         0.009638   
    189. D(H  39,O   9,C   8,H  38)    164.2844         0.018137   
    190. D(H  39,O   9,C   8,C  10)     47.3252         0.018137   
    191. D(H  39,O   9,C   8,C   6)    -76.6691         0.018137   
    192. D(H  41,C  10,C   8,H  38)     48.1399         0.010731   
    193. D(H  41,C  10,C   8,O   9)    164.4372         0.010731   
    194. D(H  41,C  10,C   8,C   6)    -74.2353         0.010731   
    195. D(H  40,C  10,C   8,H  38)    -71.7198         0.010731   
    196. D(H  40,C  10,C   8,O   9)     44.5775         0.010731   
    197. D(H  40,C  10,C   8,C   6)    165.9051         0.010731   
    198. D(O  11,C  10,C   8,H  38)    170.2899         0.010731   
    199. D(O  11,C  10,C   8,O   9)    -73.4128         0.010731   
    200. D(O  11,C  10,C   8,C   6)     47.9147         0.010731   
    201. D(P  12,O  11,C  10,H  41)    -10.1949         0.019783   
    202. D(P  12,O  11,C  10,H  40)    108.2750         0.019783   
    203. D(P  12,O  11,C  10,C   8)   -131.8685         0.019783   
    204. D(O  14,P  12,O  11,C  10)     52.8935         0.013062   
    205. D(O  13,P  12,O  11,C  10)    -75.8403         0.013062   
    206. D(O  15,P  12,O  11,C  10)    160.4652         0.013062   
    207. D(H  42,O  14,P  12,O  15)    -62.6585         0.013792   
    208. D(H  42,O  14,P  12,O  13)    174.2379         0.013792   
    209. D(H  42,O  14,P  12,O  11)     45.8692         0.013792   
    210. D(H  43,O  15,P  12,O  11)    108.6846         0.013621   
    211. D(H  43,O  15,P  12,O  14)   -141.3142         0.013621   
    212. D(H  43,O  15,P  12,O  13)    -16.3853         0.013621   
    213. D(C  30,C  16,C   3,C   5)     66.4044         0.008300   
    214. D(C  30,C  16,C   3,O   4)    -51.3795         0.008300   
    215. D(C  30,C  16,C   3,C   1)   -170.6857         0.008300   
    216. D(C  18,C  16,C   3,C   5)   -167.7474         0.008300   
    217. D(C  18,C  16,C   3,O   4)     74.4687         0.008300   
    218. D(O  17,C  16,C   3,C   5)    -52.2163         0.008300   
    219. D(O  17,C  16,C   3,O   4)   -170.0002         0.008300   
    220. D(O  17,C  16,C   3,C   1)     70.6936         0.008300   
    221. D(C  18,C  16,C   3,C   1)    -44.8375         0.008300   
    222. D(H  44,O  17,C  16,C  30)    177.6371         0.014778   
    223. D(H  44,O  17,C  16,C  18)     59.9266         0.014778   
    224. D(H  44,O  17,C  16,C   3)    -60.1786         0.014778   
    225. D(O  20,C  18,C  16,C  30)      1.2432         0.010031   
    226. D(O  20,C  18,C  16,O  17)    116.0928         0.010031   
    227. D(O  20,C  18,C  16,C   3)   -125.5287         0.010031   
    228. D(O  19,C  18,C  16,C  30)   -177.8450         0.010031   
    229. D(O  19,C  18,C  16,O  17)    -62.9955         0.010031   
    230. D(O  19,C  18,C  16,C   3)     55.3830         0.010031   
    231. D(C  21,O  20,C  18,O  19)    144.1624         0.031947   
    232. D(C  21,O  20,C  18,C  16)    -34.9397         0.031947   
    233. D(H  45,C  21,O  20,C  18)   -101.5735         0.015731   
    234. D(C  28,C  21,O  20,C  18)     17.7799         0.015731   
    235. D(C  22,C  21,O  20,C  18)    143.7033         0.015731   
    236. D(H  47,C  22,C  21,H  45)    -61.9978         0.010666   
    237. D(H  47,C  22,C  21,C  28)    178.0483         0.010666   
    238. D(H  47,C  22,C  21,O  20)     51.4914         0.010666   
    239. D(H  46,C  22,C  21,H  45)   -178.5083         0.010666   
    240. D(H  46,C  22,C  21,C  28)     61.5378         0.010666   
    241. D(H  46,C  22,C  21,O  20)    -65.0191         0.010666   
    242. D(O  23,C  22,C  21,H  45)     60.6605         0.010666   
    243. D(O  23,C  22,C  21,C  28)    -59.2934         0.010666   
    244. D(O  23,C  22,C  21,O  20)    174.1497         0.010666   
    245. D(P  24,O  23,C  22,H  47)     26.3704         0.020153   
    246. D(P  24,O  23,C  22,H  46)    141.2843         0.020153   
    247. D(P  24,O  23,C  22,C  21)    -96.0586         0.020153   
    248. D(O  27,P  24,O  23,C  22)    -75.9341         0.013240   
    249. D(O  26,P  24,O  23,C  22)    178.2604         0.013240   
    250. D(O  25,P  24,O  23,C  22)     52.5457         0.013240   
    251. D(H  48,O  26,P  24,O  27)    173.4146         0.013562   
    252. D(H  48,O  26,P  24,O  25)     49.2748         0.013562   
    253. D(H  48,O  26,P  24,O  23)    -78.5409         0.013562   
    254. D(H  49,O  27,P  24,O  26)    -68.6787         0.013684   
    255. D(H  49,O  27,P  24,O  25)     54.7996         0.013684   
    256. D(H  49,O  27,P  24,O  23)   -175.3372         0.013684   
    257. D(H  50,C  28,C  21,H  45)    -90.3867         0.010720   
    258. D(H  50,C  28,C  21,C  22)     29.1202         0.010720   
    259. D(H  50,C  28,C  21,O  20)    151.7400         0.010720   
    260. D(C  30,C  28,C  21,H  45)    148.3098         0.010720   
    261. D(C  30,C  28,C  21,C  22)    -92.1833         0.010720   
    262. D(C  30,C  28,C  21,O  20)     30.4365         0.010720   
    263. D(O  29,C  28,C  21,H  45)     25.1135         0.010720   
    264. D(O  29,C  28,C  21,C  22)    144.6204         0.010720   
    265. D(O  29,C  28,C  21,O  20)    -92.7597         0.010720   
    266. D(H  51,O  29,C  28,H  50)   -140.0011         0.017474   
    267. D(H  51,O  29,C  28,C  30)    -20.4697         0.017474   
    268. D(H  51,O  29,C  28,C  21)    101.6301         0.017474   
    269. D(O  31,C  30,C  16,C  18)    -78.2021         0.009644   
    270. D(O  31,C  30,C  16,O  17)    168.3018         0.009644   
    271. D(O  31,C  30,C  16,C   3)     48.1869         0.009644   
    272. D(C  28,C  30,C  16,C  18)     44.9839         0.009644   
    273. D(C  28,C  30,C  16,O  17)    -68.5122         0.009644   
    274. D(C  28,C  30,C  16,C   3)    171.3729         0.009644   
    275. D(H  52,C  30,C  28,O  29)    -56.7766         0.011041   
    276. D(H  52,C  30,C  28,C  21)   -178.5511         0.011041   
    277. D(O  31,C  30,C  28,H  50)    -55.1612         0.011041   
    278. D(O  31,C  30,C  28,O  29)   -172.0323         0.011041   
    279. D(O  31,C  30,C  28,C  21)     66.1932         0.011041   
    280. D(C  16,C  30,C  28,H  50)    177.9119         0.011041   
    281. D(C  16,C  30,C  28,O  29)     61.0408         0.011041   
    282. D(C  16,C  30,C  28,C  21)    -60.7337         0.011041   
    283. D(H  52,C  30,C  16,C  18)    161.8824         0.009644   
    284. D(H  52,C  30,C  16,O  17)     48.3863         0.009644   
    285. D(H  52,C  30,C  28,H  50)     60.0945         0.011041   
    286. D(H  52,C  30,C  16,C   3)    -71.7286         0.009644   
    287. D(H  53,O  31,C  30,H  52)     83.4154         0.018857   
    288. D(H  53,O  31,C  30,C  28)   -161.4280         0.018857   
    289. D(H  53,O  31,C  30,C  16)    -37.2344         0.018857   
    -----------------------------------------------------------------

Number of atoms                         .... 54
Number of degrees of freedom            .... 289

         *************************************************************
         *                GEOMETRY OPTIMIZATION CYCLE   1            *
         *************************************************************
---------------------------------
CARTESIAN COORDINATES (ANGSTROEM)
---------------------------------
  O     1.948200   -0.419700    2.713600
  C     1.482600    0.479700    2.029200
  O     1.654800    1.776500    2.353600
  C     0.673200    0.251300    0.745700
  O     0.567900   -1.176800    0.533800
  C     1.447900    0.830600   -0.470900
  C     2.848500    0.223400   -0.691500
  O     3.743700    0.673100    0.328100
  C     3.404900    0.564500   -2.098800
  O     2.578600   -0.061000   -3.087100
  C     4.857700    0.111500   -2.303300
  O     4.977800   -1.234500   -1.865400
  P     6.200000   -1.593700   -0.896800
  O     7.525100   -1.692400   -1.568600
  O     6.116900   -0.556700    0.309000
  O     5.752800   -2.960600   -0.208700
  C    -0.770300    0.869300    0.852800
  O    -0.676900    2.325800    0.827300
  C    -1.434700    0.546000    2.199200
  O    -0.890700    0.830300    3.265300
  O    -2.644900   -0.044000    2.200900
  C    -3.662000    0.235000    1.204100
  C    -4.394100   -1.087400    0.929000
  O    -5.499700   -0.893000    0.062500
  P    -6.938300   -0.708900    0.734300
  O    -7.067700    0.331100    1.788500
  O    -7.888300   -0.474400   -0.525200
  O    -7.360400   -2.177800    1.185900
  C    -3.126900    0.904300   -0.070200
  O    -3.228300    2.331700    0.061300
  C    -1.685400    0.457600   -0.330100
  O    -1.691300   -0.936800   -0.632700
  H     2.117800    1.730400    3.221800
  H     1.027800   -1.611500    1.289000
  H     0.857800    0.639000   -1.374200
  H     1.548500    1.918000   -0.364800
  H     2.776700   -0.866100   -0.601000
  H     3.786200    1.647900    0.287200
  H     3.354900    1.645700   -2.271200
  H     2.816600   -1.008600   -3.099400
  H     5.125900    0.141400   -3.364400
  H     5.543000    0.768100   -1.757400
  H     5.204800   -0.461600    0.659400
  H     6.289400   -3.697700   -0.556400
  H    -0.127400    2.585900    1.601400
  H    -4.374000    0.917800    1.683700
  H    -3.727000   -1.824600    0.472200
  H    -4.723500   -1.537600    1.874100
  H    -7.814600    0.439700   -0.853100
  H    -8.264500   -2.183400    1.545200
  H    -3.759300    0.643300   -0.925400
  H    -2.348900    2.702700    0.282900
  H    -1.345200    0.982200   -1.231300
  H    -0.785400   -1.294900   -0.508400

----------------------------
CARTESIAN COORDINATES (A.U.)
----------------------------
  NO LB    ZA    FRAG    MASS        X           Y           Z
   0 O   8.0000    0    15.999    3.681564   -0.793118    5.127961
   1 C   6.0000    0    12.011    2.801708    0.906502    3.834632
   2 O   8.0000    0    15.999    3.127119    3.357098    4.447659
   3 C   6.0000    0    12.011    1.272164    0.474888    1.409169
   4 O   8.0000    0    15.999    1.073175   -2.223830    1.008736
   5 C   6.0000    0    12.011    2.736134    1.569607   -0.889872
   6 C   6.0000    0    12.011    5.382885    0.422165   -1.306746
   7 O   8.0000    0    15.999    7.074568    1.271975    0.620019
   8 C   6.0000    0    12.011    6.434329    1.066750   -3.966157
   9 O   8.0000    0    15.999    4.872848   -0.115273   -5.833774
  10 C   6.0000    0    12.011    9.179723    0.210704   -4.352606
  11 O   8.0000    0    15.999    9.406679   -2.332867   -3.525095
  12 P  15.0000    0    30.974   11.716302   -3.011657   -1.694706
  13 O   8.0000    0    15.999   14.220378   -3.198173   -2.964224
  14 O   8.0000    0    15.999   11.559266   -1.052011    0.583925
  15 O   8.0000    0    15.999   10.871217   -5.594723   -0.394386
  16 C   6.0000    0    12.011   -1.455656    1.642739    1.611558
  17 O   8.0000    0    15.999   -1.279156    4.395125    1.563370
  18 C   6.0000    0    12.011   -2.711190    1.031790    4.155886
  19 O   8.0000    0    15.999   -1.683179    1.569040    6.170523
  20 O   8.0000    0    15.999   -4.998137   -0.083148    4.159098
  21 C   6.0000    0    12.011   -6.920177    0.444086    2.275419
  22 C   6.0000    0    12.011   -8.303646   -2.054888    1.755556
  23 O   8.0000    0    15.999  -10.392927   -1.687525    0.118108
  24 P  15.0000    0    30.974  -13.111487   -1.339627    1.387626
  25 O   8.0000    0    15.999  -13.356017    0.625688    3.379775
  26 O   8.0000    0    15.999  -14.906727   -0.896486   -0.992484
  27 O   8.0000    0    15.999  -13.909140   -4.115446    2.241026
  28 C   6.0000    0    12.011   -5.908985    1.708879   -0.132659
  29 O   8.0000    0    15.999   -6.100603    4.406274    0.115840
  30 C   6.0000    0    12.011   -3.184944    0.864739   -0.623799
  31 O   8.0000    0    15.999   -3.196094   -1.770295   -1.195630
  32 H   1.0000    0     1.008    4.002062    3.269982    6.088320
  33 H   1.0000    0     1.008    1.942261   -3.045294    2.435857
  34 H   1.0000    0     1.008    1.621007    1.207535   -2.596862
  35 H   1.0000    0     1.008    2.926241    3.624495   -0.689372
  36 H   1.0000    0     1.008    5.247203   -1.636692   -1.135725
  37 H   1.0000    0     1.008    7.154881    3.114080    0.542729
  38 H   1.0000    0     1.008    6.339842    3.109922   -4.291946
  39 H   1.0000    0     1.008    5.322603   -1.905978   -5.857017
  40 H   1.0000    0     1.008    9.686547    0.267207   -6.357795
  41 H   1.0000    0     1.008   10.474752    1.451499   -3.321005
  42 H   1.0000    0     1.008    9.835647   -0.872298    1.246085
  43 H   1.0000    0     1.008   11.885244   -6.987640   -1.051444
  44 H   1.0000    0     1.008   -0.240751    4.886643    3.026207
  45 H   1.0000    0     1.008   -8.265662    1.734391    3.181732
  46 H   1.0000    0     1.008   -7.043009   -3.447994    0.892329
  47 H   1.0000    0     1.008   -8.926121   -2.905643    3.541536
  48 H   1.0000    0     1.008  -14.767454    0.830913   -1.612125
  49 H   1.0000    0     1.008  -15.617642   -4.126028    2.920005
  50 H   1.0000    0     1.008   -7.104047    1.215661   -1.748753
  51 H   1.0000    0     1.008   -4.438778    5.107363    0.534604
  52 H   1.0000    0     1.008   -2.542060    1.856089   -2.326820
  53 H   1.0000    0     1.008   -1.484191   -2.447006   -0.960737

      -----------------------------------------------------------      
     |                   =====================                   |     
     |                           x T B                           |     
     |                   =====================                   |     
     |                         S. Grimme                         |     
     |          Mulliken Center for Theoretical Chemistry        |     
     |                    University of Bonn                     |     
      -----------------------------------------------------------      

   * xtb version 6.5.1 (579679a) compiled by 'ehlert@majestix' on 2022-07-11

   xtb is free software: you can redistribute it and/or modify it under
   the terms of the GNU Lesser General Public License as published by
   the Free Software Foundation, either version 3 of the License, or
   (at your option) any later version.
   
   xtb is distributed in the hope that it will be useful,
   but WITHOUT ANY WARRANTY; without even the implied warranty of
   MERCHANTABILITY or FITNESS FOR A PARTICULAR PURPOSE.  See the
   GNU Lesser General Public License for more details.
   
   Cite this work as:
   * C. Bannwarth, E. Caldeweyher, S. Ehlert, A. Hansen, P. Pracht,
     J. Seibert, S. Spicher, S. Grimme, WIREs Comput. Mol. Sci., 2020, 11,
     e01493. DOI: 10.1002/wcms.1493
   
   for GFN2-xTB:
   * C. Bannwarth, S. Ehlert and S. Grimme., J. Chem. Theory Comput., 2019,
     15, 1652-1671. DOI: 10.1021/acs.jctc.8b01176
   for GFN1-xTB:
   * S. Grimme, C. Bannwarth, P. Shushkov, J. Chem. Theory Comput., 2017,
     13, 1989-2009. DOI: 10.1021/acs.jctc.7b00118
   for GFN0-xTB:
   * P. Pracht, E. Caldeweyher, S. Ehlert, S. Grimme, ChemRxiv, 2019, preprint.
     DOI: 10.26434/chemrxiv.8326202.v1
   for GFN-FF:
   * S. Spicher and S. Grimme, Angew. Chem. Int. Ed., 2020, 59, 15665-15673.
     DOI: 10.1002/anie.202004239
   
   for ALPB and GBSA implicit solvation:
   * S. Ehlert, M. Stahn, S. Spicher, S. Grimme, J. Chem. Theory Comput.,
     2021, 17, 4250-4261. DOI: 10.1021/acs.jctc.1c00471
   
   for DFT-D4:
   * E. Caldeweyher, C. Bannwarth and S. Grimme, J. Chem. Phys., 2017,
     147, 034112. DOI: 10.1063/1.4993215
   * E. Caldeweyher, S. Ehlert, A. Hansen, H. Neugebauer, S. Spicher,
     C. Bannwarth and S. Grimme, J. Chem. Phys., 2019, 150, 154122.
     DOI: 10.1063/1.5090222
   * E. Caldeweyher, J.-M. Mewes, S. Ehlert and S. Grimme, Phys. Chem. Chem. Phys.
     2020, 22, 8499-8512. DOI: 10.1039/D0CP00502A
   
   for sTDA-xTB:
   * S. Grimme and C. Bannwarth, J. Chem. Phys., 2016, 145, 054103.
     DOI: 10.1063/1.4959605
   
   in the mass-spec context:
   * V. Asgeirsson, C. Bauer and S. Grimme, Chem. Sci., 2017, 8, 4879.
     DOI: 10.1039/c7sc00601b
   * J. Koopman and S. Grimme, ACS Omega 2019, 4, 12, 15120-15133.
     DOI: 10.1021/acsomega.9b02011
   
   for metadynamics refer to:
   * S. Grimme, J. Chem. Theory Comput., 2019, 155, 2847-2862
     DOI: 10.1021/acs.jctc.9b00143
   
   for SPH calculations refer to:
   * S. Spicher and S. Grimme, J. Chem. Theory Comput., 2021, 17, 1701-1714
     DOI: 10.1021/acs.jctc.0c01306
   
   with help from (in alphabetical order)
   P. Atkinson, C. Bannwarth, F. Bohle, G. Brandenburg, E. Caldeweyher
   M. Checinski, S. Dohm, S. Ehlert, S. Ehrlich, I. Gerasimov, C. Hölzer
   A. Katbashev, J. Koopman, C. Lavigne, S. Lehtola, F. März, M. Müller,
   F. Musil, H. Neugebauer, J. Pisarek, C. Plett, P. Pracht, F. Pultar,
   J. Seibert, P. Shushkov, S. Spicher, M. Stahn, M. Steiner, T. Strunk,
   J. Stückrath, T. Rose, and J. Unsleber
   
 * started run on 2023/12/06 at 20:30:32.043     

           -------------------------------------------------
          |                Calculation Setup                |
           -------------------------------------------------

          program call               : otool_xtb /tmp/18_XTB.xyz --grad -c 0 -u 0 -P 1 --namespace /tmp/18 --input /tmp/18_XTB.input.tmp --acc 1.000000
          calculation namespace      : /tmp/18
          coordinate file            : /tmp/18_XTB.xyz
          omp threads                :                     1

   ID    Z sym.   atoms
    1    8 O      1, 3, 5, 8, 10, 12, 14-16, 18, 20, 21, 24, 26-28, 30, 32
    2    6 C      2, 4, 6, 7, 9, 11, 17, 19, 22, 23, 29, 31
    3   15 P      13, 25
    4    1 H      33-54

           -------------------------------------------------
          |                 G F N 2 - x T B                 |
           -------------------------------------------------

        Reference                      10.1021/acs.jctc.8b01176
      * Hamiltonian:
        H0-scaling (s, p, d)           1.850000    2.230000    2.230000
        zeta-weighting                 0.500000
      * Dispersion:
        s8                             2.700000
        a1                             0.520000
        a2                             5.000000
        s9                             5.000000
      * Repulsion:
        kExp                           1.500000    1.000000
        rExp                           1.000000
      * Coulomb:
        alpha                          2.000000
        third order                    shell-resolved
        anisotropic                    true
        a3                             3.000000
        a5                             4.000000
        cn-shift                       1.200000
        cn-exp                         4.000000
        max-rad                        5.000000


          ...................................................
          :                      SETUP                      :
          :.................................................:
          :  # basis functions                 162          :
          :  # atomic orbitals                 160          :
          :  # shells                           88          :
          :  # electrons                       188          :
          :  max. iterations                   250          :
          :  Hamiltonian                  GFN2-xTB          :
          :  restarted?                      false          :
          :  GBSA solvation                  false          :
          :  PC potential                    false          :
          :  electronic temp.          300.0000000     K    :
          :  accuracy                    1.0000000          :
          :  -> integral cutoff          0.2500000E+02      :
          :  -> integral neglect         0.1000000E-07      :
          :  -> SCF convergence          0.1000000E-05 Eh   :
          :  -> wf. convergence          0.1000000E-03 e    :
          :  Broyden damping             0.4000000          :
          ...................................................

 iter      E             dE          RMSdq      gap      omega  full diag
   1   -115.9822461 -0.115982E+03  0.663E+00    4.32       0.0  T
   2   -116.1403332 -0.158087E+00  0.377E+00    3.42       1.0  T
   3   -116.1540566 -0.137234E-01  0.125E+00    3.60       1.0  T
   4   -116.1765085 -0.224518E-01  0.514E-01    3.24       1.0  T
   5   -116.1785532 -0.204477E-02  0.203E-01    3.40       1.0  T
   6   -116.1788986 -0.345323E-03  0.756E-02    3.35       1.0  T
   7   -116.1789216 -0.229868E-04  0.309E-02    3.36       1.0  T
   8   -116.1789312 -0.963935E-05  0.117E-02    3.36       1.2  T
   9   -116.1789321 -0.918371E-06  0.491E-03    3.36       2.8  T
  10   -116.1789324 -0.250854E-06  0.150E-03    3.36       9.1  T
  11   -116.1789324 -0.200999E-07  0.694E-04    3.36      19.6  T
  12   -116.1789324 -0.222273E-08  0.185E-04    3.36      73.7  T

   *** convergence criteria satisfied after 12 iterations ***

         #    Occupation            Energy/Eh            Energy/eV
      -------------------------------------------------------------
         1        2.0000           -0.7880358             -21.4435
       ...           ...                  ...                  ...
        88        2.0000           -0.4422340             -12.0338
        89        2.0000           -0.4386302             -11.9357
        90        2.0000           -0.4380443             -11.9198
        91        2.0000           -0.4356756             -11.8553
        92        2.0000           -0.4332397             -11.7891
        93        2.0000           -0.4316354             -11.7454
        94        2.0000           -0.4207276             -11.4486 (HOMO)
        95                         -0.2972951              -8.0898 (LUMO)
        96                         -0.2839311              -7.7262
        97                         -0.0994358              -2.7058
        98                         -0.0941748              -2.5626
        99                         -0.0884970              -2.4081
       ...                                ...                  ...
       160                          1.2262341              33.3675
      -------------------------------------------------------------
                  HL-Gap            0.1234325 Eh            3.3588 eV
             Fermi-level           -0.3590114 Eh           -9.7692 eV

 SCC (total)                   0 d,  0 h,  0 min,  0.121 sec
 SCC setup                      ...        0 min,  0.000 sec (  0.355%)
 Dispersion                     ...        0 min,  0.001 sec (  0.549%)
 classical contributions        ...        0 min,  0.000 sec (  0.132%)
 integral evaluation            ...        0 min,  0.015 sec ( 12.696%)
 iterations                     ...        0 min,  0.051 sec ( 42.414%)
 molecular gradient             ...        0 min,  0.052 sec ( 43.370%)
 printout                       ...        0 min,  0.001 sec (  0.462%)

         :::::::::::::::::::::::::::::::::::::::::::::::::::::
         ::                     SUMMARY                     ::
         :::::::::::::::::::::::::::::::::::::::::::::::::::::
         :: total energy            -115.463776500179 Eh    ::
         :: gradient norm              0.134491839997 Eh/a0 ::
         :: HOMO-LUMO gap              3.358769926206 eV    ::
         ::.................................................::
         :: SCC energy              -116.178932385981 Eh    ::
         :: -> isotropic ES            0.445173195242 Eh    ::
         :: -> anisotropic ES         -0.016304003461 Eh    ::
         :: -> anisotropic XC         -0.010512221219 Eh    ::
         :: -> dispersion             -0.061218830640 Eh    ::
         :: repulsion energy           0.714409697333 Eh    ::
         :: add. restraining           0.000000000000 Eh    ::
         :: total charge              -0.000000000000 e     ::
         :::::::::::::::::::::::::::::::::::::::::::::::::::::


Property printout bound to 'properties.out'

           -------------------------------------------------
          | TOTAL ENERGY             -115.463776500179 Eh   |
          | GRADIENT NORM               0.134491839997 Eh/α |
          | HOMO-LUMO GAP               3.358769926206 eV   |
           -------------------------------------------------

------------------------------------------------------------------------
 * finished run on 2023/12/06 at 20:30:32.186     
------------------------------------------------------------------------
 total:
 * wall-time:     0 d,  0 h,  0 min,  0.144 sec
 *  cpu-time:     0 d,  0 h,  0 min,  0.140 sec
 * ratio c/w:     0.975 speedup
 SCF:
 * wall-time:     0 d,  0 h,  0 min,  0.121 sec
 *  cpu-time:     0 d,  0 h,  0 min,  0.120 sec
 * ratio c/w:     0.993 speedup


-------------------------   --------------------
FINAL SINGLE POINT ENERGY      -115.463776500180
-------------------------   --------------------

------------------------------------------------------------------------------
                         ORCA GEOMETRY RELAXATION STEP
------------------------------------------------------------------------------

Reading the OPT-File                    .... done
Getting information on internals        .... done
Copying old internal coords+grads       .... done
Making the new internal coordinates     .... (new redundants).... done
Validating the new internal coordinates .... (new redundants).... done
Calculating the B-matrix                .... done
Calculating the G,G- and P matrices     .... done
Transforming gradient to internals      .... done
Projecting the internal gradient        .... done
Number of atoms                         ....  54
Number of internal coordinates          .... 289
Current Energy                          ....  -115.463776500 Eh
Current gradient norm                   ....     0.134491840 Eh/bohr
Maximum allowed component of the step   ....  0.300
Current trust radius                    ....  0.300
Evaluating the initial hessian          ....  (Almloef) done
Projecting the Hessian                  .... done
Forming the augmented Hessian           .... done
Diagonalizing the augmented Hessian     .... done
Last element of RFO vector              ....  0.923925895
Lowest eigenvalues of augmented Hessian:
 -0.031043209  0.000934153  0.008498816  0.009795008  0.010039337
Length of the computed step             ....  0.414071610
Warning: the length of the step is outside the trust region - taking restricted step instead
The input lambda is                     ....    -0.031043
   iter:   1  x=   -0.049110  g=    4.508631 f(x)=     0.081455
   iter:   2  x=   -0.063078  g=    1.975753 f(x)=     0.027598
   iter:   3  x=   -0.067568  g=    1.254202 f(x)=     0.005632
   iter:   4  x=   -0.067875  g=    1.107527 f(x)=     0.000340
   iter:   5  x=   -0.067876  g=    1.098495 f(x)=     0.000001
   iter:   6  x=   -0.067876  g=    1.098459 f(x)=     0.000000
   iter:   7  x=   -0.067876  g=    1.098459 f(x)=     0.000000
The output lambda is                    ....    -0.067876 (7 iterations)
The final length of the internal step   ....  0.300000000
Converting the step to cartesian space:
 Initial RMS(Int)=    0.0176470588
Transforming coordinates:
 Iter   0:  RMS(Cart)=    0.1276265469 RMS(Int)=    0.5213222304
 Iter   1:  RMS(Cart)=    0.0058212292 RMS(Int)=    0.0018545652
 Iter   2:  RMS(Cart)=    0.0002955893 RMS(Int)=    0.0000711933
 Iter   3:  RMS(Cart)=    0.0000211337 RMS(Int)=    0.0000078404
 Iter   4:  RMS(Cart)=    0.0000014188 RMS(Int)=    0.0000004116
 Iter   5:  RMS(Cart)=    0.0000000974 RMS(Int)=    0.0000000442
done
Storing new coordinates                 .... done

                                .--------------------.
          ----------------------|Geometry convergence|-------------------------
          Item                value                   Tolerance       Converged
          ---------------------------------------------------------------------
          RMS gradient        0.0068380313            0.0001000000      NO
          MAX gradient        0.0403342719            0.0003000000      NO
          RMS step            0.0176470588            0.0020000000      NO
          MAX step            0.0653128450            0.0040000000      NO
          ........................................................
          Max(Bonds)      0.0241      Max(Angles)    2.91
          Max(Dihed)        3.74      Max(Improp)    0.00
          ---------------------------------------------------------------------

The optimization has not yet converged - more geometry cycles are needed


    ---------------------------------------------------------------------------
                         Redundant Internal Coordinates
                            (Angstroem and degrees)

        Definition                    Value    dE/dq     Step     New-Value
    ----------------------------------------------------------------------------
     1. B(C   1,O   0)                1.2223  0.035941 -0.0172    1.2051   
     2. B(O   2,C   1)                1.3478  0.011091 -0.0082    1.3396   
     3. B(C   3,C   1)                1.5345  0.011626 -0.0141    1.5203   
     4. B(O   4,C   3)                1.4476  0.022521 -0.0229    1.4247   
     5. B(C   5,C   3)                1.5543  0.012073 -0.0157    1.5387   
     6. B(C   6,C   5)                1.5424  0.011639 -0.0146    1.5278   
     7. B(O   7,C   6)                1.4294  0.010324 -0.0099    1.4195   
     8. B(C   8,C   6)                1.5513  0.005632 -0.0073    1.5440   
     9. B(O   9,C   8)                1.4320  0.015992 -0.0155    1.4166   
    10. B(C  10,C   8)                1.5355 -0.001432  0.0017    1.5371   
    11. B(O  11,C  10)                1.4205  0.001781 -0.0017    1.4188   
    12. B(P  12,O  11)                1.6003 -0.009324  0.0053    1.6056   
    13. B(O  13,P  12)                1.4889  0.035211 -0.0135    1.4754   
    14. B(O  14,P  12)                1.5926  0.008101 -0.0044    1.5881   
    15. B(O  15,P  12)                1.5943  0.002471 -0.0014    1.5930   
    16. B(C  16,C   3)                1.5739  0.006643 -0.0091    1.5648   
    17. B(O  17,C  16)                1.4597  0.022780 -0.0241    1.4357   
    18. B(C  18,C  16)                1.5358  0.003379 -0.0050    1.5308   
    19. B(O  19,C  18)                1.2302  0.040334 -0.0199    1.2103   
    20. B(O  20,C  18)                1.3464  0.021080 -0.0165    1.3298   
    21. B(C  21,O  20)                1.4512  0.009484 -0.0110    1.4402   
    22. B(C  22,C  21)                1.5364  0.006229 -0.0076    1.5287   
    23. B(O  23,C  22)                1.4181  0.006082 -0.0056    1.4125   
    24. B(P  24,O  23)                1.5984  0.005807 -0.0033    1.5951   
    25. B(O  25,P  24)                1.4865  0.025872 -0.0099    1.4766   
    26. B(O  26,P  24)                1.5949  0.003932 -0.0022    1.5928   
    27. B(O  27,P  24)                1.5937  0.004008 -0.0022    1.5915   
    28. B(C  28,C  21)                1.5356  0.001863 -0.0015    1.5341   
    29. B(O  29,C  28)                1.4370  0.018255 -0.0179    1.4191   
    30. B(C  30,C  28)                1.5313  0.001134  0.0005    1.5318   
    31. B(C  30,C  16)                1.5512  0.001402 -0.0004    1.5508   
    32. B(O  31,C  30)                1.4269  0.017848 -0.0170    1.4099   
    33. B(H  32,O   2)                0.9850  0.009194 -0.0090    0.9760   
    34. B(H  33,O   4)                0.9853  0.008552 -0.0084    0.9769   
    35. B(H  34,C   5)                1.0958  0.002904 -0.0037    1.0922   
    36. B(H  35,C   5)                1.0972  0.002782 -0.0035    1.0937   
    37. B(H  36,C   6)                1.0956  0.001049 -0.0013    1.0943   
    38. B(H  37,O   7)                0.9766  0.009654 -0.0092    0.9674   
    39. B(H  38,C   8)                1.0960  0.000546 -0.0007    1.0953   
    40. B(H  39,O   9)                0.9771  0.009905 -0.0094    0.9677   
    41. B(H  40,C  10)                1.0949  0.000898 -0.0011    1.0938   
    42. B(H  41,C  10)                1.0949  0.000399 -0.0005    1.0944   
    43. B(H  42,H  32)                4.5717 -0.000847  0.0072    4.5788   
    44. B(H  42,O  14)                0.9817  0.011606 -0.0111    0.9706   
    45. B(H  43,O  15)                0.9758  0.017037 -0.0161    0.9596   
    46. B(H  44,O  17)                0.9843  0.010886 -0.0106    0.9737   
    47. B(H  45,C  21)                1.0969 -0.000873  0.0011    1.0980   
    48. B(H  46,C  22)                1.0941 -0.000550  0.0007    1.0948   
    49. B(H  47,C  22)                1.0975  0.001506 -0.0019    1.0955   
    50. B(H  48,O  26)                0.9739  0.015070 -0.0142    0.9597   
    51. B(H  49,O  27)                0.9729  0.014495 -0.0136    0.9593   
    52. B(H  50,C  28)                1.0952  0.001679 -0.0021    1.0931   
    53. B(H  51,O  29)                0.9798  0.009364 -0.0090    0.9709   
    54. B(H  52,C  30)                1.0969 -0.003872  0.0049    1.1018   
    55. B(H  53,O  31)                0.9820  0.011090 -0.0107    0.9713   
    56. A(O   2,C   1,C   3)          114.33 -0.001339    0.20    114.52   
    57. A(O   0,C   1,C   3)          124.04  0.011163   -1.26    122.78   
    58. A(O   0,C   1,O   2)          121.64 -0.009814    1.06    122.69   
    59. A(C   1,O   2,H  32)          103.13 -0.014712    1.93    105.06   
    60. A(C   5,C   3,C  16)          111.35  0.003251   -0.34    111.01   
    61. A(O   4,C   3,C   5)          106.82 -0.003332    1.28    108.10   
    62. A(O   4,C   3,C  16)          109.31 -0.006967    1.92    111.23   
    63. A(C   1,C   3,C   5)          109.65 -0.001898   -0.22    109.44   
    64. A(C   1,C   3,O   4)          107.92  0.005954   -1.48    106.44   
    65. A(C   1,C   3,C  16)          111.62  0.002780   -1.09    110.53   
    66. A(C   3,O   4,H  33)          106.80 -0.000266    0.04    106.84   
    67. A(C   3,C   5,H  35)          109.84 -0.002731    0.08    109.92   
    68. A(C   6,C   5,H  34)          107.59 -0.004977    0.85    108.44   
    69. A(C   3,C   5,H  34)          108.16 -0.004731    0.75    108.91   
    70. A(H  34,C   5,H  35)          107.60  0.001737    0.29    107.89   
    71. A(C   6,C   5,H  35)          108.71 -0.005242    0.56    109.27   
    72. A(C   3,C   5,C   6)          114.70  0.015285   -2.37    112.33   
    73. A(O   7,C   6,H  36)          107.16  0.003053   -0.53    106.63   
    74. A(C   5,C   6,H  36)          108.67 -0.002645    0.28    108.96   
    75. A(C   8,C   6,H  36)          108.49 -0.001016    0.14    108.63   
    76. A(O   7,C   6,C   8)          110.69 -0.006017    1.08    111.77   
    77. A(C   5,C   6,O   7)          110.05 -0.000276    0.01    110.06   
    78. A(C   5,C   6,C   8)          111.65  0.006785   -0.98    110.67   
    79. A(C   6,O   7,H  37)          108.14 -0.001782    0.24    108.39   
    80. A(O   9,C   8,C  10)          108.98 -0.002347    0.47    109.44   
    81. A(C   6,C   8,C  10)          113.29  0.001154   -0.07    113.22   
    82. A(C   6,C   8,O   9)          108.85  0.000768   -0.19    108.66   
    83. A(C  10,C   8,H  38)          108.26 -0.001356    0.39    108.64   
    84. A(C   6,C   8,H  38)          110.08 -0.000407    0.02    110.09   
    85. A(O   9,C   8,H  38)          107.22  0.002242   -0.65    106.57   
    86. A(C   8,O   9,H  39)          106.96 -0.000590    0.08    107.04   
    87. A(C   8,C  10,O  11)          108.57 -0.003577    0.48    109.05   
    88. A(C   8,C  10,H  41)          110.42 -0.004073    0.80    111.22   
    89. A(H  40,C  10,H  41)          108.27 -0.001213    0.15    108.42   
    90. A(O  11,C  10,H  41)          111.20  0.003221   -0.29    110.91   
    91. A(O  11,C  10,H  40)          107.69 -0.001478    0.15    107.84   
    92. A(C   8,C  10,H  40)          110.66  0.007357   -1.32    109.34   
    93. A(C  10,O  11,P  12)          117.63 -0.004437    0.47    118.10   
    94. A(O  13,P  12,O  15)          112.80 -0.005670    0.65    113.45   
    95. A(O  14,P  12,O  15)          102.52 -0.008922    1.12    103.64   
    96. A(O  13,P  12,O  14)          115.55  0.006037   -0.44    115.10   
    97. A(O  11,P  12,O  15)          103.85  0.014142   -1.62    102.23   
    98. A(O  11,P  12,O  14)          105.80 -0.004906    0.46    106.26   
    99. A(O  11,P  12,O  13)          114.93 -0.000649   -0.16    114.77   
   100. A(P  12,O  14,H  42)          112.45 -0.002917    0.35    112.80   
   101. A(P  12,O  15,H  43)          109.85  0.002977   -0.35    109.50   
   102. A(O  17,C  16,C  18)          104.66 -0.007845    1.10    105.76   
   103. A(C   3,C  16,C  18)          111.95  0.009483   -2.04    109.91   
   104. A(C   3,C  16,O  17)          109.39  0.007651   -1.83    107.55   
   105. A(C  18,C  16,C  30)          110.94  0.003196    0.03    110.97   
   106. A(O  17,C  16,C  30)          106.81  0.002766   -0.29    106.53   
   107. A(C   3,C  16,C  30)          112.64 -0.014804    2.91    115.55   
   108. A(C  16,O  17,H  44)          106.60 -0.002731    0.38    106.98   
   109. A(O  19,C  18,O  20)          119.85 -0.003726    0.45    120.30   
   110. A(C  16,C  18,O  20)          118.83 -0.004257    0.43    119.26   
   111. A(C  16,C  18,O  19)          121.32  0.007941   -0.86    120.46   
   112. A(C  18,O  20,C  21)          123.02 -0.000883   -0.03    122.98   
   113. A(O  20,C  21,C  28)          114.18 -0.001803    0.35    114.52   
   114. A(C  22,C  21,C  28)          113.12  0.002014   -0.47    112.65   
   115. A(C  28,C  21,H  45)          108.52  0.000657   -0.03    108.49   
   116. A(C  22,C  21,H  45)          107.74 -0.001994    0.39    108.14   
   117. A(O  20,C  21,H  45)          105.92  0.000705    0.01    105.93   
   118. A(O  20,C  21,C  22)          106.95  0.000279   -0.20    106.75   
   119. A(H  46,C  22,H  47)          105.43 -0.004716    1.41    106.84   
   120. A(C  21,C  22,H  47)          109.99  0.002932   -0.53    109.46   
   121. A(O  23,C  22,H  47)          110.39 -0.003154    0.37    110.77   
   122. A(O  23,C  22,H  46)          108.22 -0.001247    0.02    108.24   
   123. A(C  21,C  22,H  46)          111.36  0.000939   -0.24    111.12   
   124. A(C  21,C  22,O  23)          111.28  0.004630   -0.90    110.38   
   125. A(C  22,O  23,P  24)          117.43  0.004447   -0.47    116.96   
   126. A(O  26,P  24,O  27)          101.63 -0.004582    0.67    102.30   
   127. A(O  25,P  24,O  27)          114.89 -0.001102    0.16    115.05   
   128. A(O  23,P  24,O  27)          104.56  0.005125   -0.77    103.79   
   129. A(O  25,P  24,O  26)          113.91 -0.003452    0.62    114.53   
   130. A(O  23,P  24,O  26)          102.78  0.002107   -0.26    102.52   
   131. A(O  23,P  24,O  25)          117.19  0.001814   -0.40    116.80   
   132. A(P  24,O  26,H  48)          111.03  0.001404   -0.17    110.86   
   133. A(P  24,O  27,H  49)          110.86  0.002257   -0.27    110.59   
   134. A(O  29,C  28,C  30)          111.82 -0.005572    1.14    112.96   
   135. A(C  21,C  28,C  30)          109.98  0.004224   -0.35    109.64   
   136. A(C  30,C  28,H  50)          109.97  0.001130   -0.55    109.42   
   137. A(O  29,C  28,H  50)          105.51  0.001121   -0.07    105.44   
   138. A(C  21,C  28,O  29)          109.41 -0.000423    0.38    109.80   
   139. A(C  21,C  28,H  50)          110.05 -0.000647   -0.56    109.49   
   140. A(C  28,O  29,H  51)          109.48  0.000138   -0.02    109.46   
   141. A(C  28,C  30,O  31)          108.49  0.008947   -2.01    106.48   
   142. A(C  16,C  30,O  31)          115.06 -0.005379    0.76    115.81   
   143. A(C  16,C  30,C  28)          110.39  0.001242   -0.38    110.01   
   144. A(O  31,C  30,H  52)          107.12 -0.002698    1.02    108.14   
   145. A(C  28,C  30,H  52)          106.97 -0.004097    0.81    107.78   
   146. A(C  16,C  30,H  52)          108.46  0.001762   -0.10    108.36   
   147. A(C  30,O  31,H  53)          109.01 -0.000465    0.06    109.07   
   148. D(H  32,O   2,C   1,O   0)     -4.87  0.000144   -0.15     -5.02   
   149. D(H  32,O   2,C   1,C   3)    175.47 -0.001607    1.06    176.53   
   150. D(O   4,C   3,C   1,O   0)      0.63  0.000236    0.09      0.72   
   151. D(O   4,C   3,C   1,O   2)   -179.72  0.001952   -1.15   -180.86   
   152. D(C   5,C   3,C   1,O   0)   -115.37  0.001904   -0.50   -115.87   
   153. D(C  16,C   3,C   1,O   2)    -59.59 -0.001119   -0.39    -59.98   
   154. D(C  16,C   3,C   1,O   0)    120.76 -0.002835    0.84    121.60   
   155. D(C   5,C   3,C   1,O   2)     64.28  0.003620   -1.74     62.54   
   156. D(H  33,O   4,C   3,C   5)    119.27 -0.000127   -0.26    119.01   
   157. D(H  33,O   4,C   3,C  16)   -120.14 -0.002075    1.15   -118.98   
   158. D(H  33,O   4,C   3,C   1)      1.43  0.000790    0.07      1.51   
   159. D(H  34,C   5,C   3,O   4)     62.32 -0.002385    0.23     62.55   
   160. D(H  34,C   5,C   3,C   1)    179.02  0.001829   -0.92    178.10   
   161. D(C   6,C   5,C   3,C  16)   -177.02  0.006190   -2.79   -179.81   
   162. D(C   6,C   5,C   3,O   4)    -57.74 -0.002484    0.14    -57.61   
   163. D(H  35,C   5,C   3,O   4)    179.49 -0.004530    1.05    180.54   
   164. D(H  35,C   5,C   3,C   1)    -63.81 -0.000316   -0.10    -63.92   
   165. D(C   6,C   5,C   3,C   1)     58.95  0.001729   -1.01     57.94   
   166. D(H  35,C   5,C   3,C  16)     60.21  0.004144   -1.88     58.33   
   167. D(H  34,C   5,C   3,C  16)    -56.95  0.006289   -2.70    -59.65   
   168. D(H  36,C   6,C   5,H  35)    169.02  0.002328   -0.73    168.29   
   169. D(H  36,C   6,C   5,H  34)    -74.73 -0.001013    0.35    -74.38   
   170. D(C   8,C   6,C   5,H  35)    -71.36  0.003522   -0.98    -72.34   
   171. D(C   8,C   6,C   5,C   3)    165.27  0.000324    0.16    165.43   
   172. D(C   8,C   6,C   5,H  34)     44.89  0.000181    0.11     45.00   
   173. D(O   7,C   6,C   5,H  35)     51.97  0.000343   -0.27     51.70   
   174. D(O   7,C   6,C   5,H  34)    168.22 -0.002998    0.82    169.04   
   175. D(H  36,C   6,C   5,C   3)     45.65 -0.000870    0.41     46.05   
   176. D(O   7,C   6,C   5,C   3)    -71.40 -0.002854    0.87    -70.53   
   177. D(H  37,O   7,C   6,C   5)    -59.42 -0.001527   -0.10    -59.51   
   178. D(H  37,O   7,C   6,C   8)     64.47  0.002753   -0.59     63.88   
   179. D(H  37,O   7,C   6,H  36)   -177.41  0.000021   -0.14   -177.55   
   180. D(H  38,C   8,C   6,H  36)    172.02  0.000885   -0.02    172.00   
   181. D(H  38,C   8,C   6,O   7)    -70.67  0.000542    0.04    -70.63   
   182. D(H  38,C   8,C   6,C   5)     52.30  0.000667    0.13     52.43   
   183. D(C  10,C   8,C   6,H  36)    -66.62 -0.000362    0.44    -66.18   
   184. D(C  10,C   8,C   6,O   7)     50.69 -0.000706    0.50     51.19   
   185. D(C  10,C   8,C   6,C   5)    173.65 -0.000580    0.60    174.25   
   186. D(O   9,C   8,C   6,H  36)     54.78 -0.002042    0.86     55.64   
   187. D(O   9,C   8,C   6,O   7)    172.09 -0.002386    0.92    173.00   
   188. D(O   9,C   8,C   6,C   5)    -64.95 -0.002260    1.02    -63.93   
   189. D(H  39,O   9,C   8,H  38)    164.28 -0.001068    0.35    164.64   
   190. D(H  39,O   9,C   8,C  10)     47.33  0.000540    0.00     47.33   
   191. D(H  39,O   9,C   8,C   6)    -76.67  0.000127   -0.09    -76.76   
   192. D(H  41,C  10,C   8,H  38)     48.14 -0.000046    0.04     48.18   
   193. D(H  41,C  10,C   8,O   9)    164.44  0.000610   -0.27    164.17   
   194. D(H  41,C  10,C   8,C   6)    -74.24  0.000682   -0.22    -74.45   
   195. D(H  40,C  10,C   8,H  38)    -71.72 -0.000641    0.19    -71.53   
   196. D(H  40,C  10,C   8,O   9)     44.58  0.000015   -0.12     44.46   
   197. D(H  40,C  10,C   8,C   6)    165.91  0.000087   -0.07    165.84   
   198. D(O  11,C  10,C   8,H  38)    170.29 -0.000951    0.49    170.78   
   199. D(O  11,C  10,C   8,O   9)    -73.41 -0.000295    0.18    -73.23   
   200. D(O  11,C  10,C   8,C   6)     47.91 -0.000223    0.23     48.15   
   201. D(P  12,O  11,C  10,H  41)    -10.19  0.002596   -2.36    -12.56   
   202. D(P  12,O  11,C  10,H  40)    108.27  0.002060   -2.26    106.01   
   203. D(P  12,O  11,C  10,C   8)   -131.87  0.008000   -3.49   -135.36   
   204. D(O  14,P  12,O  11,C  10)     52.89  0.005027   -1.63     51.26   
   205. D(O  13,P  12,O  11,C  10)    -75.84  0.001539   -1.32    -77.16   
   206. D(O  15,P  12,O  11,C  10)    160.47 -0.001158   -0.86    159.61   
   207. D(H  42,O  14,P  12,O  15)    -62.66 -0.005784    0.12    -62.54   
   208. D(H  42,O  14,P  12,O  13)    174.24  0.004200   -1.23    173.01   
   209. D(H  42,O  14,P  12,O  11)     45.87  0.004692   -1.08     44.79   
   210. D(H  43,O  15,P  12,O  11)    108.68  0.003278   -0.56    108.13   
   211. D(H  43,O  15,P  12,O  14)   -141.31 -0.000473   -0.20   -141.52   
   212. D(H  43,O  15,P  12,O  13)    -16.39 -0.002249    0.37    -16.02   
   213. D(C  30,C  16,C   3,C   5)     66.40 -0.001818    0.18     66.59   
   214. D(C  30,C  16,C   3,O   4)    -51.38  0.004690   -2.40    -53.77   
   215. D(C  30,C  16,C   3,C   1)   -170.69  0.000087   -1.13   -171.81   
   216. D(C  18,C  16,C   3,C   5)   -167.75 -0.001696    0.90   -166.85   
   217. D(C  18,C  16,C   3,O   4)     74.47  0.004812   -1.68     72.79   
   218. D(O  17,C  16,C   3,C   5)    -52.22 -0.001084   -0.06    -52.28   
   219. D(O  17,C  16,C   3,O   4)   -170.00  0.005425   -2.64   -172.64   
   220. D(O  17,C  16,C   3,C   1)     70.69  0.000821   -1.37     69.32   
   221. D(C  18,C  16,C   3,C   1)    -44.84  0.000208   -0.41    -45.25   
   222. D(H  44,O  17,C  16,C  30)    177.64  0.004761   -0.93    176.71   
   223. D(H  44,O  17,C  16,C  18)     59.93  0.003619   -1.36     58.57   
   224. D(H  44,O  17,C  16,C   3)    -60.18 -0.007016    1.35    -58.83   
   225. D(O  20,C  18,C  16,C  30)      1.24 -0.002725    0.45      1.69   
   226. D(O  20,C  18,C  16,O  17)    116.09 -0.002266    0.73    116.82   
   227. D(O  20,C  18,C  16,C   3)   -125.53  0.007057   -1.85   -127.38   
   228. D(O  19,C  18,C  16,C  30)   -177.85  0.000325   -1.44   -179.29   
   229. D(O  19,C  18,C  16,O  17)    -63.00  0.000784   -1.16    -64.16   
   230. D(O  19,C  18,C  16,C   3)     55.38  0.010107   -3.74     51.64   
   231. D(C  21,O  20,C  18,O  19)    144.16 -0.000697    1.90    146.07   
   232. D(C  21,O  20,C  18,C  16)    -34.94  0.002198    0.05    -34.89   
   233. D(H  45,C  21,O  20,C  18)   -101.57  0.001430   -0.92   -102.50   
   234. D(C  28,C  21,O  20,C  18)     17.78  0.001675   -0.76     17.02   
   235. D(C  22,C  21,O  20,C  18)    143.70  0.003248   -1.28    142.42   
   236. D(H  47,C  22,C  21,H  45)    -62.00 -0.000964    0.29    -61.71   
   237. D(H  47,C  22,C  21,C  28)    178.05 -0.001674    0.35    178.40   
   238. D(H  47,C  22,C  21,O  20)     51.49 -0.000959    0.38     51.88   
   239. D(H  46,C  22,C  21,H  45)   -178.51  0.002463   -0.97   -179.48   
   240. D(H  46,C  22,C  21,C  28)     61.54  0.001753   -0.91     60.63   
   241. D(H  46,C  22,C  21,O  20)    -65.02  0.002468   -0.88    -65.90   
   242. D(O  23,C  22,C  21,H  45)     60.66  0.000223   -0.22     60.44   
   243. D(O  23,C  22,C  21,C  28)    -59.29 -0.000487   -0.15    -59.45   
   244. D(O  23,C  22,C  21,O  20)    174.15  0.000228   -0.12    174.03   
   245. D(P  24,O  23,C  22,H  47)     26.37  0.002912   -0.11     26.26   
   246. D(P  24,O  23,C  22,H  46)    141.28 -0.005109    1.79    143.07   
   247. D(P  24,O  23,C  22,C  21)    -96.06 -0.001810    0.93    -95.13   
   248. D(O  27,P  24,O  23,C  22)    -75.93 -0.001445   -0.23    -76.16   
   249. D(O  26,P  24,O  23,C  22)    178.26  0.001209   -0.63    177.63   
   250. D(O  25,P  24,O  23,C  22)     52.55  0.002836   -0.97     51.57   
   251. D(H  48,O  26,P  24,O  27)    173.41 -0.003358    0.34    173.75   
   252. D(H  48,O  26,P  24,O  25)     49.27  0.002981   -0.65     48.62   
   253. D(H  48,O  26,P  24,O  23)    -78.54  0.001315   -0.35    -78.89   
   254. D(H  49,O  27,P  24,O  26)    -68.68  0.004289   -1.14    -69.82   
   255. D(H  49,O  27,P  24,O  25)     54.80 -0.003751    0.18     54.98   
   256. D(H  49,O  27,P  24,O  23)   -175.34  0.002052   -0.86   -176.20   
   257. D(H  50,C  28,C  21,H  45)    -90.39  0.000991   -0.30    -90.69   
   258. D(H  50,C  28,C  21,C  22)     29.12  0.000197   -0.13     28.99   
   259. D(H  50,C  28,C  21,O  20)    151.74  0.000766   -0.50    151.24   
   260. D(C  30,C  28,C  21,H  45)    148.31 -0.002737    0.97    149.28   
   261. D(C  30,C  28,C  21,C  22)    -92.18 -0.003531    1.14    -91.04   
   262. D(C  30,C  28,C  21,O  20)     30.44 -0.002962    0.77     31.21   
   263. D(O  29,C  28,C  21,H  45)     25.11  0.001735   -0.49     24.63   
   264. D(O  29,C  28,C  21,C  22)    144.62  0.000941   -0.31    144.31   
   265. D(O  29,C  28,C  21,O  20)    -92.76  0.001510   -0.68    -93.44   
   266. D(H  51,O  29,C  28,H  50)   -140.00  0.001346   -0.90   -140.90   
   267. D(H  51,O  29,C  28,C  30)    -20.47  0.000361   -0.99    -21.46   
   268. D(H  51,O  29,C  28,C  21)    101.63  0.001702   -0.40    101.23   
   269. D(O  31,C  30,C  16,C  18)    -78.20 -0.008226    1.96    -76.25   
   270. D(O  31,C  30,C  16,O  17)    168.30 -0.002072    0.80    169.10   
   271. D(O  31,C  30,C  16,C   3)     48.19 -0.004582    1.53     49.72   
   272. D(C  28,C  30,C  16,C  18)     44.98  0.000676   -0.47     44.51   
   273. D(C  28,C  30,C  16,O  17)    -68.51  0.006831   -1.63    -70.14   
   274. D(C  28,C  30,C  16,C   3)    171.37  0.004321   -0.89    170.48   
   275. D(H  52,C  30,C  28,O  29)    -56.78 -0.001934    1.03    -55.74   
   276. D(H  52,C  30,C  28,C  21)   -178.55 -0.000572    0.02   -178.53   
   277. D(O  31,C  30,C  28,H  50)    -55.16 -0.002414    0.69    -54.47   
   278. D(O  31,C  30,C  28,O  29)   -172.03 -0.001117    0.43   -171.60   
   279. D(O  31,C  30,C  28,C  21)     66.19  0.000245   -0.59     65.61   
   280. D(C  16,C  30,C  28,H  50)    177.91 -0.002834    1.44    179.35   
   281. D(C  16,C  30,C  28,O  29)     61.04 -0.001536    1.18     62.22   
   282. D(C  16,C  30,C  28,C  21)    -60.73 -0.000174    0.16    -60.57   
   283. D(H  52,C  30,C  16,C  18)    161.88 -0.002534    0.23    162.11   
   284. D(H  52,C  30,C  16,O  17)     48.39  0.003620   -0.93     47.46   
   285. D(H  52,C  30,C  28,H  50)     60.09 -0.003232    1.30     61.39   
   286. D(H  52,C  30,C  16,C   3)    -71.73  0.001111   -0.19    -71.92   
   287. D(H  53,O  31,C  30,H  52)     83.42 -0.000785    0.41     83.83   
   288. D(H  53,O  31,C  30,C  28)   -161.43 -0.002498    0.88   -160.55   
   289. D(H  53,O  31,C  30,C  16)    -37.23  0.002347   -0.68    -37.91   
    ----------------------------------------------------------------------------

         *************************************************************
         *                GEOMETRY OPTIMIZATION CYCLE   2            *
         *************************************************************
---------------------------------
CARTESIAN COORDINATES (ANGSTROEM)
---------------------------------
  O     1.889821   -0.441595    2.592101
  C     1.431070    0.452405    1.926822
  O     1.596049    1.744607    2.239088
  C     0.650716    0.207491    0.645236
  O     0.596432   -1.205286    0.469606
  C     1.419720    0.807757   -0.544550
  C     2.826063    0.226162   -0.678645
  O     3.648366    0.691741    0.380628
  C     3.426591    0.563834   -2.060342
  O     2.645671   -0.066028   -3.060420
  C     4.893295    0.127688   -2.205645
  O     5.023378   -1.213378   -1.761061
  P     6.265466   -1.577831   -0.811247
  O     7.558306   -1.713626   -1.509043
  O     6.246472   -0.518546    0.371936
  O     5.775446   -2.925250   -0.117079
  C    -0.785147    0.820363    0.750941
  O    -0.646878    2.249344    0.749640
  C    -1.404921    0.464553    2.104712
  O    -0.801216    0.680064    3.131332
  O    -2.607210   -0.102729    2.139987
  C    -3.651908    0.214770    1.200864
  C    -4.385956   -1.091995    0.899887
  O    -5.515796   -0.845819    0.088768
  P    -6.914907   -0.665280    0.833255
  O    -6.959521    0.313085    1.938358
  O    -7.908387   -0.348486   -0.370704
  O    -7.327158   -2.150031    1.231112
  C    -3.171008    0.928259   -0.069166
  O    -3.272698    2.333372    0.101555
  C    -1.750094    0.469041   -0.411005
  O    -1.839980   -0.898684   -0.741257
  H     2.056886    1.740564    3.099456
  H     1.054368   -1.603480    1.235206
  H     0.869439    0.597588   -1.464279
  H     1.487516    1.893779   -0.434681
  H     2.771720   -0.862116   -0.577831
  H     3.682342    1.657646    0.338667
  H     3.361564    1.641349   -2.245926
  H     2.887731   -1.002947   -3.061086
  H     5.178160    0.160095   -3.261151
  H     5.560842    0.790796   -1.646774
  H     5.357894   -0.376961    0.735976
  H     6.271708   -3.666603   -0.470675
  H    -0.084284    2.481259    1.509759
  H    -4.343731    0.880527    1.733541
  H    -3.734684   -1.798273    0.374837
  H    -4.680085   -1.570405    1.840542
  H    -7.829409    0.567204   -0.647038
  H    -8.195282   -2.161327    1.639117
  H    -3.840312    0.686564   -0.898876
  H    -2.396296    2.698892    0.303726
  H    -1.425959    1.018293   -1.309399
  H    -0.959909   -1.302319   -0.664075

----------------------------
CARTESIAN COORDINATES (A.U.)
----------------------------
  NO LB    ZA    FRAG    MASS        X           Y           Z
   0 O   8.0000    0    15.999    3.571244   -0.834493    4.898361
   1 C   6.0000    0    12.011    2.704331    0.854922    3.641166
[...]
 69:    609.44   0.018967   95.85  0.009712  (-0.049964 -0.002835  0.084896)
 70:    618.37   0.010359   52.35  0.005228  ( 0.038894  0.003817  0.060831)
 71:    640.17   0.006206   31.36  0.003025  ( 0.052641  0.010846 -0.011691)
 72:    688.51   0.035524  179.52  0.016101  (-0.109484 -0.050247  0.039868)
 73:    727.40   0.026321  133.02  0.011292  (-0.016172  0.104767  0.007383)
 74:    733.12   0.006146   31.06  0.002616  ( 0.021865  0.024161 -0.039425)
 75:    740.63   0.014789   74.74  0.006231  (-0.065803  0.012690  0.041717)
 76:    763.93   0.024231  122.45  0.009898  ( 0.063600 -0.011945  0.075569)
 77:    777.40   0.003403   17.20  0.001366  (-0.034595  0.004480  0.012215)
 78:    815.63   0.035547  179.64  0.013600  ( 0.036769 -0.054099  0.096548)
 79:    820.89   0.023001  116.24  0.008744  ( 0.067747 -0.064432  0.001650)
 80:    850.26   0.009177   46.38  0.003368  (-0.046558  0.026069  0.022827)
 81:    868.77   0.041217  208.29  0.014805  ( 0.035990 -0.110583 -0.035795)
 82:    873.98   0.036943  186.70  0.013191  (-0.054933  0.010984  0.100262)
 83:    877.94   0.005116   25.85  0.001819  ( 0.011439  0.007202 -0.040445)
 84:    904.40   0.038958  196.88  0.013443  (-0.076971 -0.049935  0.070884)
 85:    908.08   0.005968   30.16  0.002051  (-0.014867 -0.022066  0.036645)
 86:    910.14   0.023815  120.35  0.008166  (-0.026946 -0.052510  0.068427)
 87:    919.57   0.011025   55.72  0.003741  (-0.018016  0.057332 -0.011396)
 88:    935.65   0.107299  542.24  0.035787  ( 0.151500 -0.065035  0.092764)
 89:    938.35   0.001155    5.83  0.000384  (-0.018890 -0.001425  0.005010)
 90:    959.09   0.040623  205.29  0.013218  ( 0.040366  0.076471  0.075766)
 91:    983.01   0.005237   26.46  0.001662  ( 0.024490  0.031785  0.007237)
 92:   1004.18   0.008911   45.03  0.002769  ( 0.008718  0.003138  0.051801)
 93:   1025.32   0.003085   15.59  0.000939  ( 0.008278 -0.023009 -0.018464)
 94:   1044.62   0.001183    5.98  0.000353  (-0.012943 -0.009718 -0.009564)
 95:   1059.87   0.005133   25.94  0.001511  (-0.034321  0.018127  0.002206)
 96:   1073.59   0.007814   39.49  0.002271  (-0.019300  0.020448 -0.038480)
 97:   1078.73   0.059635  301.37  0.017252  (-0.023982  0.117027 -0.054600)
 98:   1086.83   0.019492   98.51  0.005597  ( 0.039266  0.007847  0.063194)
 99:   1097.68   0.002914   14.73  0.000829  (-0.016152  0.022131 -0.008827)
100:   1102.35   0.000922    4.66  0.000261  ( 0.012573  0.000079  0.010145)
101:   1104.50   0.014108   71.30  0.003986  ( 0.048512 -0.024955  0.031779)
102:   1111.67   0.014825   74.92  0.004162  ( 0.011040  0.040774  0.048758)
103:   1118.48   0.005498   27.78  0.001534  (-0.012935 -0.036966  0.000343)
104:   1122.49   0.023228  117.39  0.006458  ( 0.020261  0.071309  0.031022)
105:   1125.36   0.015557   78.62  0.004314  ( 0.019803  0.030965  0.054433)
106:   1130.21   0.018337   92.67  0.005063  ( 0.032925 -0.060006 -0.019449)
107:   1134.91   0.035012  176.94  0.009627  (-0.045129  0.085352  0.017481)
108:   1145.07   0.004417   22.32  0.001204  (-0.019577  0.027435  0.008235)
109:   1162.17   0.007150   36.13  0.001920  ( 0.034444  0.014899  0.022616)
110:   1169.42   0.007735   39.09  0.002064  ( 0.019303  0.000684  0.041122)
111:   1200.22   0.006267   31.67  0.001630  ( 0.011584 -0.018919 -0.033725)
112:   1205.06   0.047742  241.27  0.012363  ( 0.108251  0.025346 -0.001593)
113:   1211.93   0.002993   15.13  0.000771  ( 0.005584 -0.025596  0.009189)
114:   1222.00   0.001905    9.62  0.000486  (-0.011171 -0.001803  0.018930)
115:   1224.93   0.001607    8.12  0.000409  ( 0.001309  0.018706 -0.007599)
116:   1227.87   0.017508   88.48  0.004450  ( 0.019221  0.041797  0.048304)
117:   1237.26   0.025231  127.51  0.006364  ( 0.078467 -0.014047 -0.003085)
118:   1242.93   0.057026  288.19  0.014318  ( 0.072546  0.065044  0.069454)
119:   1252.10   0.021527  108.79  0.005365  ( 0.030452 -0.040676 -0.052757)
120:   1253.96   0.013039   65.89  0.003245  ( 0.000492  0.046270  0.033224)
121:   1276.76   0.010805   54.61  0.002641  ( 0.027298 -0.043400 -0.003492)
122:   1282.02   0.023851  120.53  0.005806  (-0.069633 -0.024415 -0.018995)
123:   1292.70   0.077361  390.95  0.018675  (-0.123741 -0.044892  0.036716)
124:   1303.69   0.007463   37.72  0.001787  ( 0.024807 -0.034203  0.001126)
125:   1305.54   0.006683   33.77  0.001597  ( 0.034977  0.010602  0.016177)
126:   1311.41   0.001272    6.43  0.000303  (-0.005077 -0.009194 -0.013871)
127:   1314.27   0.010072   50.90  0.002392  (-0.024591  0.036107 -0.021980)
128:   1317.29   0.011549   58.36  0.002736  (-0.049641 -0.010906  0.012361)
129:   1324.54   0.016097   81.35  0.003792  ( 0.034981  0.050062 -0.007904)
130:   1329.04   0.010985   55.51  0.002579  ( 0.027540  0.018211  0.038591)
131:   1332.48   0.018680   94.40  0.004375  ( 0.041161  0.040429  0.032342)
132:   1341.04   0.010510   53.12  0.002446  ( 0.023696 -0.003016  0.043304)
133:   1346.34   0.014893   75.26  0.003452  ( 0.026914  0.024023  0.046374)
134:   1347.99   0.022559  114.00  0.005222  (-0.027033  0.057995 -0.033591)
135:   1437.12   0.000193    0.97  0.000042  (-0.001072  0.001162 -0.006274)
136:   1454.65   0.001596    8.06  0.000342  ( 0.000616 -0.001259  0.018449)
137:   1459.27   0.000066    0.33  0.000014  (-0.000173  0.002230  0.003017)
138:   1761.50   0.066609  336.61  0.011800  (-0.082806  0.025918 -0.065358)
139:   1793.24   0.111755  564.76  0.019448  (-0.105260  0.081606 -0.041337)
140:   2859.19   0.005440   27.49  0.000594  ( 0.001657 -0.014569  0.019460)
141:   2924.09   0.000097    0.49  0.000010  ( 0.000981  0.000400  0.003033)
142:   2926.05   0.003102   15.68  0.000331  (-0.001132  0.017143 -0.005977)
143:   2938.05   0.007317   36.98  0.000777  (-0.001140 -0.005509 -0.027305)
144:   2946.19   0.005545   28.02  0.000587  (-0.000198  0.001684  0.024176)
145:   2949.20   0.006398   32.33  0.000677  ( 0.000011  0.025848 -0.002983)
146:   2953.32   0.001438    7.27  0.000152  ( 0.000275 -0.011228  0.005080)
147:   2961.52   0.002119   10.71  0.000223  (-0.000612 -0.014074  0.004988)
148:   2967.43   0.002164   10.94  0.000228  ( 0.002030  0.014175  0.004745)
149:   2990.43   0.002267   11.46  0.000237  (-0.000397 -0.015039  0.003206)
150:   3004.20   0.000113    0.57  0.000012  ( 0.000388 -0.000125 -0.003406)
151:   3338.91   0.031145  157.39  0.002911  ( 0.043963 -0.008836  0.030001)
152:   3384.73   0.024460  123.61  0.002255  (-0.047307  0.004030 -0.000962)
153:   3427.58   0.022968  116.07  0.002091  ( 0.030680  0.011109  0.032037)
154:   3441.45   0.072454  366.15  0.006570  ( 0.080968 -0.003706  0.000667)
155:   3451.39   0.012064   60.97  0.001091  ( 0.024246  0.020218  0.009706)
156:   3460.11   0.002872   14.51  0.000259  (-0.012027 -0.007825  0.007288)
157:   3508.56   0.015823   79.96  0.001407  ( 0.034208 -0.011064 -0.010713)
158:   3512.74   0.011821   59.74  0.001050  ( 0.026736 -0.017530 -0.005301)
159:   3514.95   0.005721   28.91  0.000508  (-0.015760  0.010997 -0.011773)
160:   3622.63   0.006630   33.51  0.000571  ( 0.008607 -0.021552 -0.005709)
161:   3638.86   0.018824   95.13  0.001614  (-0.033808  0.021587 -0.002308)

* The epsilon (eps) is given for a Dirac delta lineshape.
** The dipole moment derivative (T) already includes vibrational overlap.

The first frequency considered to be a vibration is 6
The total number of vibrations considered is 156


--------------------------
THERMOCHEMISTRY AT 298.15K
--------------------------

Temperature         ... 298.15 K
Pressure            ... 1.00 atm
Total Mass          ... 516.24 AMU

Throughout the following assumptions are being made:
  (1) The electronic state is orbitally nondegenerate
  (2) There are no thermally accessible electronically excited states
  (3) Hindered rotations indicated by low frequency modes are not
      treated as such but are treated as vibrations and this may
      cause some error
  (4) All equations used are the standard statistical mechanics
      equations for an ideal gas
  (5) All vibrations are strictly harmonic

freq.      11.64  E(vib)   ...       0.58 
freq.      19.77  E(vib)   ...       0.56 
freq.      25.40  E(vib)   ...       0.56 
freq.      30.36  E(vib)   ...       0.55 
freq.      39.69  E(vib)   ...       0.54 
freq.      47.73  E(vib)   ...       0.53 
freq.      57.12  E(vib)   ...       0.51 
freq.      64.96  E(vib)   ...       0.50 
freq.      77.85  E(vib)   ...       0.49 
freq.      89.17  E(vib)   ...       0.47 
freq.      98.74  E(vib)   ...       0.46 
freq.     107.58  E(vib)   ...       0.45 
freq.     110.05  E(vib)   ...       0.45 
freq.     120.42  E(vib)   ...       0.44 
freq.     128.20  E(vib)   ...       0.43 
freq.     136.09  E(vib)   ...       0.42 
freq.     142.06  E(vib)   ...       0.41 
freq.     148.91  E(vib)   ...       0.40 
freq.     162.98  E(vib)   ...       0.39 
freq.     166.37  E(vib)   ...       0.39 
freq.     170.07  E(vib)   ...       0.38 
freq.     181.78  E(vib)   ...       0.37 
freq.     194.96  E(vib)   ...       0.36 
freq.     199.54  E(vib)   ...       0.35 
freq.     210.86  E(vib)   ...       0.34 
freq.     226.05  E(vib)   ...       0.33 
freq.     235.33  E(vib)   ...       0.32 
freq.     266.02  E(vib)   ...       0.29 
freq.     269.65  E(vib)   ...       0.29 
freq.     276.57  E(vib)   ...       0.28 
freq.     302.42  E(vib)   ...       0.26 
freq.     306.94  E(vib)   ...       0.26 
freq.     310.65  E(vib)   ...       0.26 
freq.     319.55  E(vib)   ...       0.25 
freq.     328.47  E(vib)   ...       0.24 
freq.     339.15  E(vib)   ...       0.23 
freq.     344.43  E(vib)   ...       0.23 
freq.     357.46  E(vib)   ...       0.22 
freq.     359.07  E(vib)   ...       0.22 
freq.     369.57  E(vib)   ...       0.21 
freq.     379.92  E(vib)   ...       0.21 
freq.     386.79  E(vib)   ...       0.20 
freq.     402.64  E(vib)   ...       0.19 
freq.     404.23  E(vib)   ...       0.19 
freq.     412.05  E(vib)   ...       0.19 
freq.     414.27  E(vib)   ...       0.19 
freq.     425.68  E(vib)   ...       0.18 
freq.     432.25  E(vib)   ...       0.18 
freq.     436.90  E(vib)   ...       0.17 
freq.     452.20  E(vib)   ...       0.16 
freq.     454.09  E(vib)   ...       0.16 
freq.     465.75  E(vib)   ...       0.16 
freq.     469.42  E(vib)   ...       0.16 
freq.     474.02  E(vib)   ...       0.15 
freq.     489.57  E(vib)   ...       0.15 
freq.     498.41  E(vib)   ...       0.14 
freq.     504.37  E(vib)   ...       0.14 
freq.     509.18  E(vib)   ...       0.14 
freq.     519.28  E(vib)   ...       0.13 
freq.     524.94  E(vib)   ...       0.13 
freq.     542.75  E(vib)   ...       0.12 
freq.     555.97  E(vib)   ...       0.12 
freq.     587.67  E(vib)   ...       0.10 
freq.     609.44  E(vib)   ...       0.10 
freq.     618.37  E(vib)   ...       0.09 
freq.     640.17  E(vib)   ...       0.09 
freq.     688.51  E(vib)   ...       0.07 
freq.     727.40  E(vib)   ...       0.06 
freq.     733.12  E(vib)   ...       0.06 
freq.     740.63  E(vib)   ...       0.06 
freq.     763.93  E(vib)   ...       0.06 
freq.     777.40  E(vib)   ...       0.05 
freq.     815.63  E(vib)   ...       0.05 
freq.     820.89  E(vib)   ...       0.05 
freq.     850.26  E(vib)   ...       0.04 
freq.     868.77  E(vib)   ...       0.04 
freq.     873.98  E(vib)   ...       0.04 
freq.     877.94  E(vib)   ...       0.04 
freq.     904.40  E(vib)   ...       0.03 
freq.     908.08  E(vib)   ...       0.03 
freq.     910.14  E(vib)   ...       0.03 
freq.     919.57  E(vib)   ...       0.03 
freq.     935.65  E(vib)   ...       0.03 
freq.     938.35  E(vib)   ...       0.03 
freq.     959.09  E(vib)   ...       0.03 
freq.     983.01  E(vib)   ...       0.02 
freq.    1004.18  E(vib)   ...       0.02 
freq.    1025.32  E(vib)   ...       0.02 
freq.    1044.62  E(vib)   ...       0.02 
freq.    1059.87  E(vib)   ...       0.02 
freq.    1073.59  E(vib)   ...       0.02 
freq.    1078.73  E(vib)   ...       0.02 
freq.    1086.83  E(vib)   ...       0.02 
freq.    1097.68  E(vib)   ...       0.02 
freq.    1102.35  E(vib)   ...       0.02 
freq.    1104.50  E(vib)   ...       0.02 
freq.    1111.67  E(vib)   ...       0.01 
freq.    1118.48  E(vib)   ...       0.01 
freq.    1122.49  E(vib)   ...       0.01 
freq.    1125.36  E(vib)   ...       0.01 
freq.    1130.21  E(vib)   ...       0.01 
freq.    1134.91  E(vib)   ...       0.01 
freq.    1145.07  E(vib)   ...       0.01 
freq.    1162.17  E(vib)   ...       0.01 
freq.    1169.42  E(vib)   ...       0.01 
freq.    1200.22  E(vib)   ...       0.01 
freq.    1205.06  E(vib)   ...       0.01 
freq.    1211.93  E(vib)   ...       0.01 
freq.    1222.00  E(vib)   ...       0.01 
freq.    1224.93  E(vib)   ...       0.01 
freq.    1227.87  E(vib)   ...       0.01 
freq.    1237.26  E(vib)   ...       0.01 
freq.    1242.93  E(vib)   ...       0.01 
freq.    1252.10  E(vib)   ...       0.01 
freq.    1253.96  E(vib)   ...       0.01 
freq.    1276.76  E(vib)   ...       0.01 
freq.    1282.02  E(vib)   ...       0.01 
freq.    1292.70  E(vib)   ...       0.01 
freq.    1303.69  E(vib)   ...       0.01 
freq.    1305.54  E(vib)   ...       0.01 
freq.    1311.41  E(vib)   ...       0.01 
freq.    1314.27  E(vib)   ...       0.01 
freq.    1317.29  E(vib)   ...       0.01 
freq.    1324.54  E(vib)   ...       0.01 
freq.    1329.04  E(vib)   ...       0.01 
freq.    1332.48  E(vib)   ...       0.01 
freq.    1341.04  E(vib)   ...       0.01 
freq.    1346.34  E(vib)   ...       0.01 
freq.    1347.99  E(vib)   ...       0.01 
freq.    1437.12  E(vib)   ...       0.00 
freq.    1454.65  E(vib)   ...       0.00 
freq.    1459.27  E(vib)   ...       0.00 
freq.    1761.50  E(vib)   ...       0.00 
freq.    1793.24  E(vib)   ...       0.00 
freq.    2859.19  E(vib)   ...       0.00 
freq.    2924.09  E(vib)   ...       0.00 
freq.    2926.05  E(vib)   ...       0.00 
freq.    2938.05  E(vib)   ...       0.00 
freq.    2946.19  E(vib)   ...       0.00 
freq.    2949.20  E(vib)   ...       0.00 
freq.    2953.32  E(vib)   ...       0.00 
freq.    2961.52  E(vib)   ...       0.00 
freq.    2967.43  E(vib)   ...       0.00 
freq.    2990.43  E(vib)   ...       0.00 
freq.    3004.20  E(vib)   ...       0.00 
freq.    3338.91  E(vib)   ...       0.00 
freq.    3384.73  E(vib)   ...       0.00 
freq.    3427.58  E(vib)   ...       0.00 
freq.    3441.45  E(vib)   ...       0.00 
freq.    3451.39  E(vib)   ...       0.00 
freq.    3460.11  E(vib)   ...       0.00 
freq.    3508.56  E(vib)   ...       0.00 
freq.    3512.74  E(vib)   ...       0.00 
freq.    3514.95  E(vib)   ...       0.00 
freq.    3622.63  E(vib)   ...       0.00 
freq.    3638.86  E(vib)   ...       0.00 

------------
INNER ENERGY
------------

The inner energy is: U= E(el) + E(ZPE) + E(vib) + E(rot) + E(trans)
    E(el)   - is the total energy from the electronic structure calculation
              = E(kin-el) + E(nuc-el) + E(el-el) + E(nuc-nuc)
    E(ZPE)  - the the zero temperature vibrational energy from the frequency calculation
    E(vib)  - the the finite temperature correction to E(ZPE) due to population
              of excited vibrational states
    E(rot)  - is the rotational thermal energy
    E(trans)- is the translational thermal energy

Summary of contributions to the inner energy U:
Electronic energy                ...   -115.50398202 Eh
Zero point energy                ...      0.38088439 Eh     239.01 kcal/mol
Thermal vibrational correction   ...      0.03270472 Eh      20.52 kcal/mol
Thermal rotational correction    ...      0.00141627 Eh       0.89 kcal/mol
Thermal translational correction ...      0.00141627 Eh       0.89 kcal/mol
-----------------------------------------------------------------------
Total thermal energy                   -115.08756037 Eh


Summary of corrections to the electronic energy:
(perhaps to be used in another calculation)
Total thermal correction                  0.03553726 Eh      22.30 kcal/mol
Non-thermal (ZPE) correction              0.38088439 Eh     239.01 kcal/mol
-----------------------------------------------------------------------
Total correction                          0.41642165 Eh     261.31 kcal/mol


--------
ENTHALPY
--------

The enthalpy is H = U + kB*T
                kB is Boltzmann's constant
Total free energy                 ...   -115.08756037 Eh 
Thermal Enthalpy correction       ...      0.00094421 Eh       0.59 kcal/mol
-----------------------------------------------------------------------
Total Enthalpy                    ...   -115.08661617 Eh


Note: Only C1 symmetry has been detected, increase convergence thresholds 
      if your molecule has a higher symmetry. Symmetry factor of 1.0 is   
      used for the rotational entropy correction. 
 

Note: Rotational entropy computed according to Herzberg 
Infrared and Raman Spectra, Chapter V,1, Van Nostrand Reinhold, 1945 
Point Group:  C1, Symmetry Number:   1  
Rotational constants in cm-1:     0.011689     0.001592     0.001528 

Vibrational entropy computed according to the QRRHO of S. Grimme
Chem.Eur.J. 2012 18 9955


-------
ENTROPY
-------

The entropy contributions are T*S = T*(S(el)+S(vib)+S(rot)+S(trans))
     S(el)   - electronic entropy
     S(vib)  - vibrational entropy
     S(rot)  - rotational entropy
     S(trans)- translational entropy
The entropies will be listed as multiplied by the temperature to get
units of energy

Electronic entropy                ...      0.00000000 Eh      0.00 kcal/mol
Vibrational entropy               ...      0.05869520 Eh     36.83 kcal/mol
Rotational entropy                ...      0.01771380 Eh     11.12 kcal/mol
Translational entropy             ...      0.02119591 Eh     13.30 kcal/mol
-----------------------------------------------------------------------
Final entropy term                ...      0.09760490 Eh     61.25 kcal/mol

In case the symmetry of your molecule has not been determined correctly
or in case you have a reason to use a different symmetry number we print 
out the resulting rotational entropy values for sn=1,12 :
 --------------------------------------------------------
|  sn= 1 | S(rot)=       0.01771380 Eh     11.12 kcal/mol|
|  sn= 2 | S(rot)=       0.01705934 Eh     10.70 kcal/mol|
|  sn= 3 | S(rot)=       0.01667651 Eh     10.46 kcal/mol|
|  sn= 4 | S(rot)=       0.01640488 Eh     10.29 kcal/mol|
|  sn= 5 | S(rot)=       0.01619419 Eh     10.16 kcal/mol|
|  sn= 6 | S(rot)=       0.01602205 Eh     10.05 kcal/mol|
|  sn= 7 | S(rot)=       0.01587650 Eh      9.96 kcal/mol|
|  sn= 8 | S(rot)=       0.01575043 Eh      9.88 kcal/mol|
|  sn= 9 | S(rot)=       0.01563922 Eh      9.81 kcal/mol|
|  sn=10 | S(rot)=       0.01553974 Eh      9.75 kcal/mol|
|  sn=11 | S(rot)=       0.01544975 Eh      9.69 kcal/mol|
|  sn=12 | S(rot)=       0.01536759 Eh      9.64 kcal/mol|
 --------------------------------------------------------


-------------------
GIBBS FREE ENERGY
-------------------

The Gibbs free energy is G = H - T*S

Total enthalpy                    ...   -115.08661617 Eh 
Total entropy correction          ...     -0.09760490 Eh    -61.25 kcal/mol
-----------------------------------------------------------------------
Final Gibbs free energy         ...   -115.18422106 Eh

For completeness - the Gibbs free energy minus the electronic energy
G-E(el)                           ...      0.31976096 Eh    200.65 kcal/mol



Timings for individual modules:

Sum of individual times         ...      844.694 sec (=  14.078 min)
Geometry relaxation             ...       14.355 sec (=   0.239 min)   1.7 %
Numerical frequency calculation ...      821.444 sec (=  13.691 min)  97.2 %
XTB module                      ...        8.896 sec (=   0.148 min)   1.1 %
                             ****ORCA TERMINATED NORMALLY****
TOTAL RUN TIME: 0 days 0 hours 14 minutes 17 seconds 399 msec
