
                                 *****************
                                 * O   R   C   A *
                                 *****************

                                            #,                                       
                                            ###                                      
                                            ####                                     
                                            #####                                    
                                            ######                                   
                                           ########,                                 
                                     ,,################,,,,,                         
                               ,,#################################,,                 
                          ,,##########################################,,             
                       ,#########################################, ''#####,          
                    ,#############################################,,   '####,        
                  ,##################################################,,,,####,       
                ,###########''''           ''''###############################       
              ,#####''   ,,,,##########,,,,          '''####'''          '####       
            ,##' ,,,,###########################,,,                        '##       
           ' ,,###''''                  '''############,,,                           
         ,,##''                                '''############,,,,        ,,,,,,###''
      ,#''                                            '''#######################'''  
     '                                                          ''''####''''         
             ,#######,   #######,   ,#######,      ##                                
            ,#'     '#,  ##    ##  ,#'     '#,    #''#        ######   ,####,        
            ##       ##  ##   ,#'  ##            #'  '#       #        #'  '#        
            ##       ##  #######   ##           ,######,      #####,   #    #        
            '#,     ,#'  ##    ##  '#,     ,#' ,#      #,         ##   #,  ,#        
             '#######'   ##     ##  '#######'  #'      '#     #####' # '####'        



                  #######################################################
                  #                        -***-                        #
                  #          Department of theory and spectroscopy      #
                  #    Directorship and core code : Frank Neese         #
                  #        Max Planck Institute fuer Kohlenforschung    #
                  #                Kaiser Wilhelm Platz 1               #
                  #                 D-45470 Muelheim/Ruhr               #
                  #                      Germany                        #
                  #                                                     #
                  #                  All rights reserved                #
                  #                        -***-                        #
                  #######################################################


                         Program Version 5.0.3 -  RELEASE  -


 With contributions from (in alphabetic order):
   Daniel Aravena         : Magnetic Suceptibility
   Michael Atanasov       : Ab Initio Ligand Field Theory (pilot matlab implementation)
   Alexander A. Auer      : GIAO ZORA, VPT2 properties, NMR spectrum
   Ute Becker             : Parallelization
   Giovanni Bistoni       : ED, misc. LED, open-shell LED, HFLD
   Martin Brehm           : Molecular dynamics
   Dmytro Bykov           : SCF Hessian
   Vijay G. Chilkuri      : MRCI spin determinant printing, contributions to CSF-ICE
   Dipayan Datta          : RHF DLPNO-CCSD density
   Achintya Kumar Dutta   : EOM-CC, STEOM-CC
   Dmitry Ganyushin       : Spin-Orbit,Spin-Spin,Magnetic field MRCI
   Miquel Garcia          : C-PCM and meta-GGA Hessian, CC/C-PCM, Gaussian charge scheme
   Yang Guo               : DLPNO-NEVPT2, F12-NEVPT2, CIM, IAO-localization
   Andreas Hansen         : Spin unrestricted coupled pair/coupled cluster methods
   Benjamin Helmich-Paris : MC-RPA, TRAH-SCF, COSX integrals
   Lee Huntington         : MR-EOM, pCC
   Robert Izsak           : Overlap fitted RIJCOSX, COSX-SCS-MP3, EOM
   Marcus Kettner         : VPT2
   Christian Kollmar      : KDIIS, OOCD, Brueckner-CCSD(T), CCSD density, CASPT2, CASPT2-K
   Simone Kossmann        : Meta GGA functionals, TD-DFT gradient, OOMP2, MP2 Hessian
   Martin Krupicka        : Initial AUTO-CI
   Lucas Lang             : DCDCAS
   Marvin Lechner         : AUTO-CI (C++ implementation), FIC-MRCC
   Dagmar Lenk            : GEPOL surface, SMD
   Dimitrios Liakos       : Extrapolation schemes; Compound Job, initial MDCI parallelization
   Dimitrios Manganas     : Further ROCIS development; embedding schemes
   Dimitrios Pantazis     : SARC Basis sets
   Anastasios Papadopoulos: AUTO-CI, single reference methods and gradients
   Taras Petrenko         : DFT Hessian,TD-DFT gradient, ASA, ECA, R-Raman, ABS, FL, XAS/XES, NRVS
   Peter Pinski           : DLPNO-MP2, DLPNO-MP2 Gradient
   Christoph Reimann      : Effective Core Potentials
   Marius Retegan         : Local ZFS, SOC
   Christoph Riplinger    : Optimizer, TS searches, QM/MM, DLPNO-CCSD(T), (RO)-DLPNO pert. Triples
   Tobias Risthaus        : Range-separated hybrids, TD-DFT gradient, RPA, STAB
   Michael Roemelt        : Original ROCIS implementation
   Masaaki Saitow         : Open-shell DLPNO-CCSD energy and density
   Barbara Sandhoefer     : DKH picture change effects
   Avijit Sen             : IP-ROCIS
   Kantharuban Sivalingam : CASSCF convergence, NEVPT2, FIC-MRCI
   Bernardo de Souza      : ESD, SOC TD-DFT
   Georgi Stoychev        : AutoAux, RI-MP2 NMR, DLPNO-MP2 response
   Willem Van den Heuvel  : Paramagnetic NMR
   Boris Wezisla          : Elementary symmetry handling
   Frank Wennmohs         : Technical directorship


 We gratefully acknowledge several colleagues who have allowed us to
 interface, adapt or use parts of their codes:
   Stefan Grimme, W. Hujo, H. Kruse, P. Pracht,  : VdW corrections, initial TS optimization,
                  C. Bannwarth, S. Ehlert          DFT functionals, gCP, sTDA/sTD-DF
   Ed Valeev, F. Pavosevic, A. Kumar             : LibInt (2-el integral package), F12 methods
   Garnet Chan, S. Sharma, J. Yang, R. Olivares  : DMRG
   Ulf Ekstrom                                   : XCFun DFT Library
   Mihaly Kallay                                 : mrcc  (arbitrary order and MRCC methods)
   Jiri Pittner, Ondrej Demel                    : Mk-CCSD
   Frank Weinhold                                : gennbo (NPA and NBO analysis)
   Christopher J. Cramer and Donald G. Truhlar   : smd solvation model
   Lars Goerigk                                  : TD-DFT with DH, B97 family of functionals
   V. Asgeirsson, H. Jonsson                     : NEB implementation
   FAccTs GmbH                                   : IRC, NEB, NEB-TS, DLPNO-Multilevel, CI-OPT
                                                   MM, QMMM, 2- and 3-layer-ONIOM, Crystal-QMMM,
                                                   LR-CPCM, SF, NACMEs, symmetry and pop. for TD-DFT,
                                                   nearIR, NL-DFT gradient (VV10), updates on ESD,
                                                   ML-optimized integration grids
   S Lehtola, MJT Oliveira, MAL Marques          : LibXC Library
   Liviu Ungur et al                             : ANISO software


 Your calculation uses the libint2 library for the computation of 2-el integrals
 For citations please refer to: http://libint.valeyev.net

 Your ORCA version has been built with support for libXC version: 5.1.0
 For citations please refer to: https://tddft.org/programs/libxc/

 This ORCA versions uses:
   CBLAS   interface :  Fast vector & matrix operations
   LAPACKE interface :  Fast linear algebra routines
   SCALAPACK package :  Parallel linear algebra routines
   Shared memory     :  Shared parallel matrices
   BLAS/LAPACK       :  OpenBLAS 0.3.15  USE64BITINT DYNAMIC_ARCH NO_AFFINITY Haswell SINGLE_THREADED
        Core in use  :  Haswell
   Copyright (c) 2011-2014, The OpenBLAS Project


Your calculation utilizes the semiempirical GFN2-xTB method
Please cite in your paper:
C. Bannwarth, Ehlert S., S. Grimme,  J. Chem. Theory Comput., 15, (2019), 1652.
   

================================================================================

================================================================================
                                        WARNINGS
                       Please study these warnings very carefully!
================================================================================


WARNING: Geometry Optimization
  ===> : Switching off AutoStart
         For restart on a previous wavefunction, please use MOREAD

WARNING: Found dipole moment calculation with XTB calculation
  ===> : Switching off dipole moment calculation


WARNING: TRAH-SCF for XTB is not implemented!
  ===> : Turning TRAH off!

================================================================================
                                       INPUT FILE
================================================================================
NAME = /tmp/19.inp
|  1> ! XTB2 opt numfreq
|  2> * XYZ 0 1
|  3> O -3.8571 -0.0970 -0.4912
|  4> C -2.6649 -0.0745 -0.8151
|  5> C -1.5420 0.0443 0.2212
|  6> O -2.0016 -0.5939 1.4385
|  7> C -1.3220 1.5374 0.5295
|  8> O -2.5208 2.1277 1.0433
|  9> P -3.4848 2.8827 0.0071
| 10> O -3.0761 2.8368 -1.4244
| 11> O -4.9164 2.2368 0.2972
| 12> O -3.6184 4.3601 0.5924
| 13> C -0.2321 -0.6376 -0.2971
| 14> O -0.0054 -0.2178 -1.6391
| 15> O 0.8611 -0.1247 0.4756
| 16> C 2.1065 -0.8462 0.4598
| 17> C 2.7870 -0.8281 -0.9250
| 18> O 2.7039 0.4367 -1.5647
| 19> P 3.4822 1.6799 -0.9205
| 20> O 4.7544 1.3985 -0.2201
| 21> O 2.3723 2.4229 -0.0558
| 22> O 3.6015 2.6774 -2.1570
| 23> C 1.9300 -2.2842 0.9857
| 24> O 2.4418 -2.3808 2.3322
| 25> C 0.4547 -2.6991 1.0089
| 26> O 0.3897 -4.1353 1.0802
| 27> C -0.2870 -2.1967 -0.2327
| 28> O -1.6103 -2.7462 -0.2276
| 29> H -2.3768 -0.0351 -1.8805
| 30> H -2.7491 -0.0402 1.7513
| 31> H -0.5922 1.6488 1.3282
| 32> H -0.9454 2.0954 -0.3344
| 33> H -4.9464 1.3303 -0.0915
| 34> H -4.0008 4.9654 -0.0689
| 35> H 0.6231 0.5382 -1.5754
| 36> H 2.7568 -0.2881 1.1471
| 37> H 3.8383 -1.1211 -0.8409
| 38> H 2.3154 -1.5491 -1.5951
| 39> H 2.7105 3.2625 0.3037
| 40> H 4.3179 2.4174 -2.7684
| 41> H 2.5333 -2.9934 0.3941
| 42> H 2.1808 -3.2720 2.6476
| 43> H -0.0360 -2.3413 1.9195
| 44> H -0.4912 -4.3761 0.7251
| 45> H 0.1829 -2.6229 -1.1231
| 46> H -2.0670 -2.3977 0.5605
| 47> *
| 48> 
| 49>                          ****END OF INPUT****
================================================================================

                       *****************************
                       * Geometry Optimization Run *
                       *****************************

Geometry optimization settings:
Update method            Update   .... BFGS
Choice of coordinates    CoordSys .... Z-matrix Internals
Initial Hessian          InHess   .... Almoef's Model

Convergence Tolerances:
Energy Change            TolE     ....  5.0000e-06 Eh
Max. Gradient            TolMAXG  ....  3.0000e-04 Eh/bohr
RMS Gradient             TolRMSG  ....  1.0000e-04 Eh/bohr
Max. Displacement        TolMAXD  ....  4.0000e-03 bohr
RMS Displacement         TolRMSD  ....  2.0000e-03 bohr
Strict Convergence                ....  False
------------------------------------------------------------------------------
                        ORCA OPTIMIZATION COORDINATE SETUP
------------------------------------------------------------------------------

The optimization will be done in new redundant internal coordinates
Making redundant internal coordinates   ...  (new redundants) done
Evaluating the initial hessian          ...  (Almloef) done
Evaluating the coordinates              ...  done
Calculating the B-matrix                .... done
Calculating the G-matrix                .... done
Diagonalizing the G-matrix              .... done
Small eigenvalue found = 2.885e-03
Small eigenvalue found = 5.812e-03
Small eigenvalue found = 9.245e-03
Small eigenvalue found = 1.250e-02
Small eigenvalue found = 1.567e-02
Small eigenvalue found = 2.238e-02
Small eigenvalue found = 2.516e-02
The first mode is                       ....  107
The number of degrees of freedom        ....  126

    -----------------------------------------------------------------
                    Redundant Internal Coordinates


    -----------------------------------------------------------------
         Definition                    Initial Value    Approx d2E/dq
    -----------------------------------------------------------------
      1. B(C   1,O   0)                  1.2356         0.986684   
      2. B(C   2,C   1)                  1.5326         0.369991   
      3. B(O   3,C   2)                  1.4493         0.450124   
      4. B(C   4,C   2)                  1.5404         0.359587   
      5. B(O   5,C   4)                  1.4316         0.480238   
      6. B(P   6,O   5)                  1.6041         0.856720   
      7. B(O   7,P   6)                  1.4894         1.305483   
      8. B(O   8,P   6)                  1.5971         0.878835   
      9. B(O   9,P   6)                  1.5947         0.886645   
     10. B(C  10,C   2)                  1.5651         0.328411   
     11. B(O  11,C  10)                  1.4243         0.493373   
     12. B(O  12,C  10)                  1.4336         0.476771   
     13. B(C  13,O  12)                  1.4394         0.466748   
     14. B(C  14,C  13)                  1.5431         0.356056   
     15. B(O  15,C  14)                  1.4198         0.501564   
     16. B(P  16,O  15)                  1.6020         0.863363   
     17. B(O  17,P  16)                  1.4793         1.355019   
     18. B(O  18,P  16)                  1.5911         0.898484   
     19. B(O  19,P  16)                  1.5932         0.891732   
     20. B(C  20,C  13)                  1.5413         0.358401   
     21. B(O  21,C  20)                  1.4437         0.459373   
     22. B(C  22,C  20)                  1.5327         0.369878   
     23. B(O  23,C  22)                  1.4394         0.466661   
     24. B(C  24,C  22)                  1.5310         0.372145   
     25. B(C  24,C  10)                  1.5614         0.332881   
     26. B(O  25,C  24)                  1.4329         0.478067   
     27. B(H  26,C   1)                  1.1044         0.341584   
     28. B(H  27,O   3)                  0.9814         0.480611   
     29. B(H  28,C   4)                  1.0876         0.363248   
     30. B(H  29,C   4)                  1.0952         0.353256   
     31. B(H  30,O   8)                  0.9868         0.471243   
     32. B(H  31,O   9)                  0.9746         0.492719   
     33. B(H  32,O  11)                  0.9852         0.473993   
     34. B(H  33,C  13)                  1.0985         0.349003   
     35. B(H  34,C  14)                  1.0946         0.354063   
     36. B(H  35,C  14)                  1.0915         0.358176   
     37. B(H  36,O  18)                  0.9739         0.494010   
     38. B(H  37,O  19)                  0.9771         0.488376   
     39. B(H  38,C  20)                  1.1031         0.343126   
     40. B(H  39,O  21)                  0.9807         0.481826   
     41. B(H  40,C  22)                  1.0945         0.354155   
     42. B(H  41,O  23)                  0.9798         0.483426   
     43. B(H  42,C  24)                  1.0933         0.355785   
     44. B(H  43,O  25)                  0.9753         0.491613   
     45. A(C   2,C   1,H  26)          117.2841         0.321017   
     46. A(O   0,C   1,C   2)          122.0788         0.427252   
     47. A(O   0,C   1,H  26)          120.3474         0.376309   
     48. A(C   4,C   2,C  10)          111.6582         0.353174   
     49. A(O   3,C   2,C   4)          107.6996         0.370378   
     50. A(C   1,C   2,O   3)          107.5451         0.372201   
     51. A(O   3,C   2,C  10)          110.5925         0.364661   
     52. A(C   1,C   2,C  10)          110.8250         0.354885   
     53. A(C   1,C   2,C   4)          108.3671         0.360399   
     54. A(C   2,O   3,H  27)          105.1178         0.345848   
     55. A(C   2,C   4,H  29)          112.6489         0.321284   
     56. A(H  28,C   4,H  29)          107.2376         0.290361   
     57. A(O   5,C   4,H  29)          111.1585         0.334963   
     58. A(C   2,C   4,O   5)          110.6039         0.374533   
     59. A(O   5,C   4,H  28)          104.8381         0.336521   
     60. A(C   2,C   4,H  28)          110.0042         0.322755   
     61. A(C   4,O   5,P   6)          117.7406         0.463506   
     62. A(O   5,P   6,O   7)          116.1966         0.599285   
     63. A(O   7,P   6,O   8)          114.0841         0.602237   
     64. A(O   8,P   6,O   9)          103.4680         0.559207   
     65. A(O   7,P   6,O   9)          113.8468         0.603266   
     66. A(O   5,P   6,O   9)          104.4366         0.556502   
     67. A(O   5,P   6,O   8)          103.3561         0.555567   
     68. A(P   6,O   8,H  30)          109.0998         0.412268   
     69. A(P   6,O   9,H  31)          111.0510         0.416200   
     70. A(C   2,C  10,C  24)          113.0772         0.348600   
     71. A(O  12,C  10,C  24)          111.2123         0.369129   
     72. A(C   2,C  10,O  11)          108.4714         0.370445   
     73. A(O  11,C  10,O  12)          106.3216         0.392702   
     74. A(O  11,C  10,C  24)          109.8019         0.371308   
     75. A(C   2,C  10,O  12)          107.6890         0.368273   
     76. A(C  10,O  11,H  32)          105.4736         0.350416   
     77. A(C  10,O  12,C  13)          118.3290         0.388913   
     78. A(C  20,C  13,H  33)          109.1663         0.320475   
     79. A(C  14,C  13,H  33)          107.1253         0.320131   
     80. A(O  12,C  13,H  33)          104.5170         0.332713   
     81. A(O  12,C  13,C  14)          112.6773         0.372065   
     82. A(C  14,C  13,C  20)          111.5711         0.357850   
     83. A(O  12,C  13,C  20)          111.3976         0.372486   
     84. A(O  15,C  14,H  35)          106.6521         0.338173   
     85. A(O  15,C  14,H  34)          109.2254         0.337523   
     86. A(C  13,C  14,H  34)          110.5770         0.320885   
     87. A(C  13,C  14,O  15)          112.8910         0.376712   
     88. A(C  13,C  14,H  35)          110.6512         0.321492   
     89. A(H  34,C  14,H  35)          106.5790         0.289825   
     90. A(C  14,O  15,P  16)          118.7969         0.467868   
     91. A(O  18,P  16,O  19)          100.4660         0.562178   
     92. A(O  17,P  16,O  19)          114.9725         0.608291   
     93. A(O  15,P  16,O  19)          102.1322         0.557927   
     94. A(O  17,P  16,O  18)          115.5586         0.609179   
     95. A(O  15,P  16,O  18)          104.0062         0.558728   
     96. A(O  15,P  16,O  17)          117.4262         0.604505   
     97. A(P  16,O  18,H  36)          111.1575         0.417378   
     98. A(P  16,O  19,H  37)          111.9601         0.415968   
     99. A(C  13,C  20,O  21)          109.8806         0.371465   
    100. A(O  21,C  20,H  38)          105.2649         0.330905   
    101. A(C  22,C  20,H  38)          111.1307         0.321238   
    102. A(C  13,C  20,C  22)          111.5891         0.360178   
    103. A(O  21,C  20,C  22)          107.9986         0.373488   
    104. A(C  13,C  20,H  38)          110.7441         0.319587   
    105. A(C  20,O  21,H  39)          105.4501         0.347181   
    106. A(O  23,C  22,C  24)          110.2244         0.374898   
    107. A(C  20,C  22,C  24)          111.4195         0.362497   
    108. A(C  24,C  22,H  40)          110.5008         0.323230   
    109. A(O  23,C  22,H  40)          105.3496         0.333513   
    110. A(C  20,C  22,H  40)          110.8321         0.322907   
    111. A(C  20,C  22,O  23)          108.3188         0.374503   
    112. A(C  22,O  23,H  41)          105.5364         0.348297   
    113. A(C  22,C  24,O  25)          108.5825         0.376465   
    114. A(C  10,C  24,O  25)          114.5542         0.369301   
    115. A(C  10,C  24,C  22)          110.1253         0.356051   
    116. A(O  25,C  24,H  42)          104.4976         0.335108   
    117. A(C  22,C  24,H  42)          108.9246         0.323474   
    118. A(C  10,C  24,H  42)          109.9109         0.317631   
    119. A(C  24,O  25,H  43)          107.3565         0.350711   
    120. D(C  10,C   2,C   1,O   0)    151.7469         0.010251   
    121. D(C   4,C   2,C   1,H  26)     88.4237         0.010251   
    122. D(C   4,C   2,C   1,O   0)    -85.4095         0.010251   
    123. D(O   3,C   2,C   1,O   0)     30.7548         0.010251   
    124. D(O   3,C   2,C   1,H  26)   -155.4120         0.010251   
    125. D(C  10,C   2,C   1,H  26)    -34.4199         0.010251   
    126. D(H  27,O   3,C   2,C   4)     50.8087         0.015957   
    127. D(H  27,O   3,C   2,C  10)    173.0683         0.015957   
    128. D(H  27,O   3,C   2,C   1)    -65.7938         0.015957   
    129. D(O   5,C   4,C   2,O   3)    -56.4815         0.010375   
    130. D(H  28,C   4,C   2,C   1)    174.9248         0.010375   
    131. D(O   5,C   4,C   2,C  10)   -178.0803         0.010375   
    132. D(H  29,C   4,C   2,O   3)    178.4393         0.010375   
    133. D(H  28,C   4,C   2,C  10)    -62.7382         0.010375   
    134. D(H  28,C   4,C   2,O   3)     58.8606         0.010375   
    135. D(O   5,C   4,C   2,C   1)     59.5827         0.010375   
    136. D(H  29,C   4,C   2,C  10)     56.8405         0.010375   
    137. D(H  29,C   4,C   2,C   1)    -65.4965         0.010375   
    138. D(P   6,O   5,C   4,H  29)     30.5651         0.018194   
    139. D(P   6,O   5,C   4,H  28)    146.1122         0.018194   
    140. D(P   6,O   5,C   4,C   2)    -95.3543         0.018194   
    141. D(O   9,P   6,O   5,C   4)   -123.0798         0.012724   
    142. D(O   8,P   6,O   5,C   4)    128.9632         0.012724   
    143. D(O   7,P   6,O   5,C   4)      3.2136         0.012724   
    144. D(H  30,O   8,P   6,O   7)     51.9185         0.013356   
    145. D(H  30,O   8,P   6,O   5)    -75.1748         0.013356   
    146. D(H  30,O   8,P   6,O   9)    176.1415         0.013356   
    147. D(H  31,O   9,P   6,O   8)    -86.1500         0.013583   
    148. D(H  31,O   9,P   6,O   7)     38.2276         0.013583   
    149. D(H  31,O   9,P   6,O   5)    165.9756         0.013583   
    150. D(O  11,C  10,C   2,C   1)     46.4971         0.008792   
    151. D(C  24,C  10,C   2,O   3)     43.6271         0.008792   
    152. D(C  24,C  10,C   2,C   1)    -75.5462         0.008792   
    153. D(O  12,C  10,C   2,C   4)     40.2599         0.008792   
    154. D(O  12,C  10,C   2,O   3)    -79.6508         0.008792   
    155. D(O  12,C  10,C   2,C   1)    161.1759         0.008792   
    156. D(O  11,C  10,C   2,C   4)    -74.4189         0.008792   
    157. D(C  24,C  10,C   2,C   4)    163.5378         0.008792   
    158. D(O  11,C  10,C   2,O   3)    165.6704         0.008792   
    159. D(H  32,O  11,C  10,C  24)   -140.0977         0.019229   
    160. D(H  32,O  11,C  10,O  12)    -19.6900         0.019229   
    161. D(H  32,O  11,C  10,C   2)     95.8805         0.019229   
    162. D(C  13,O  12,C  10,O  11)    -80.8953         0.017927   
    163. D(C  13,O  12,C  10,C  24)     38.5968         0.017927   
    164. D(C  13,O  12,C  10,C   2)    163.0066         0.017927   
    165. D(H  33,C  13,O  12,C  10)   -177.7112         0.017169   
    166. D(C  20,C  13,O  12,C  10)    -59.9551         0.017169   
    167. D(C  14,C  13,O  12,C  10)     66.3218         0.017169   
    168. D(H  35,C  14,C  13,H  33)    167.0935         0.010187   
    169. D(H  35,C  14,C  13,C  20)     47.6720         0.010187   
    170. D(H  34,C  14,C  13,O  12)    163.6353         0.010187   
    171. D(O  15,C  14,C  13,H  33)    -73.4639         0.010187   
    172. D(O  15,C  14,C  13,C  20)    167.1146         0.010187   
    173. D(H  34,C  14,C  13,H  33)     49.2406         0.010187   
    174. D(O  15,C  14,C  13,O  12)     40.9309         0.010187   
    175. D(H  34,C  14,C  13,C  20)    -70.1809         0.010187   
    176. D(H  35,C  14,C  13,O  12)    -78.5117         0.010187   
    177. D(P  16,O  15,C  14,H  35)   -172.0037         0.019892   
    178. D(P  16,O  15,C  14,H  34)    -57.1865         0.019892   
    179. D(P  16,O  15,C  14,C  13)     66.2692         0.019892   
    180. D(O  19,P  16,O  15,C  14)    159.3709         0.012912   
    181. D(O  18,P  16,O  15,C  14)    -96.4403         0.012912   
    182. D(O  17,P  16,O  15,C  14)     32.6395         0.012912   
    183. D(H  36,O  18,P  16,O  19)    -67.9129         0.013933   
    184. D(H  36,O  18,P  16,O  17)     56.4364         0.013933   
    185. D(H  36,O  18,P  16,O  15)   -173.3602         0.013933   
    186. D(H  37,O  19,P  16,O  18)    174.5381         0.013733   
    187. D(H  37,O  19,P  16,O  17)     49.7871         0.013733   
    188. D(H  37,O  19,P  16,O  15)    -78.5168         0.013733   
    189. D(H  38,C  20,C  13,H  33)   -104.5635         0.010312   
    190. D(H  38,C  20,C  13,C  14)     13.6419         0.010312   
    191. D(H  38,C  20,C  13,O  12)    140.5248         0.010312   
    192. D(C  22,C  20,C  13,H  33)    131.0728         0.010312   
    193. D(C  22,C  20,C  13,C  14)   -110.7219         0.010312   
    194. D(C  22,C  20,C  13,O  12)     16.1611         0.010312   
    195. D(O  21,C  20,C  13,H  33)     11.3069         0.010312   
    196. D(O  21,C  20,C  13,C  14)    129.5122         0.010312   
    197. D(O  21,C  20,C  13,O  12)   -103.6049         0.010312   
    198. D(H  39,O  21,C  20,H  38)    -68.7955         0.016624   
    199. D(H  39,O  21,C  20,C  22)     49.9928         0.016624   
    200. D(H  39,O  21,C  20,C  13)    171.9228         0.016624   
    201. D(H  40,C  22,C  20,H  38)    152.5031         0.010937   
    202. D(H  40,C  22,C  20,O  21)     37.5201         0.010937   
    203. D(H  40,C  22,C  20,C  13)    -83.3503         0.010937   
    204. D(C  24,C  22,C  20,H  38)    -84.0073         0.010937   
    205. D(C  24,C  22,C  20,O  21)    161.0097         0.010937   
    206. D(C  24,C  22,C  20,C  13)     40.1393         0.010937   
    207. D(O  23,C  22,C  20,H  38)     37.3954         0.010937   
    208. D(O  23,C  22,C  20,O  21)    -77.5877         0.010937   
    209. D(O  23,C  22,C  20,C  13)    161.5419         0.010937   
    210. D(H  41,O  23,C  22,H  40)     84.3103         0.017162   
    211. D(H  41,O  23,C  22,C  24)    -34.9098         0.017162   
    212. D(H  41,O  23,C  22,C  20)   -157.0464         0.017162   
    213. D(H  42,C  24,C  22,O  23)    -60.1851         0.011063   
    214. D(H  42,C  24,C  22,C  20)     60.1018         0.011063   
    215. D(O  25,C  24,C  22,H  40)    -62.9876         0.011063   
    216. D(O  25,C  24,C  22,C  20)    173.3346         0.011063   
    217. D(C  10,C  24,C  22,H  40)     63.1777         0.011063   
    218. D(C  10,C  24,C  22,O  23)    179.2130         0.011063   
    219. D(C  10,C  24,C  22,C  20)    -60.5001         0.011063   
    220. D(H  42,C  24,C  10,O  12)    -98.3619         0.009008   
    221. D(H  42,C  24,C  10,O  11)     19.0346         0.009008   
    222. D(H  42,C  24,C  10,C   2)    140.3294         0.009008   
    223. D(O  25,C  24,C  10,O  12)    144.3665         0.009008   
    224. D(O  25,C  24,C  10,O  11)    -98.2370         0.009008   
    225. D(O  25,C  24,C  22,O  23)     53.0477         0.011063   
    226. D(O  25,C  24,C  10,C   2)     23.0578         0.009008   
    227. D(C  22,C  24,C  10,O  12)     21.6451         0.009008   
    228. D(C  22,C  24,C  10,O  11)    139.0416         0.009008   
    229. D(H  42,C  24,C  22,H  40)   -176.2204         0.011063   
    230. D(C  22,C  24,C  10,C   2)    -99.6636         0.009008   
    231. D(H  43,O  25,C  24,H  42)    179.4423         0.018026   
    232. D(H  43,O  25,C  24,C  22)     63.3163         0.018026   
    233. D(H  43,O  25,C  24,C  10)    -60.2352         0.018026   
    -----------------------------------------------------------------

Number of atoms                         .... 44
Number of degrees of freedom            .... 233

         *************************************************************
         *                GEOMETRY OPTIMIZATION CYCLE   1            *
         *************************************************************
---------------------------------
CARTESIAN COORDINATES (ANGSTROEM)
---------------------------------
  O    -3.857100   -0.097000   -0.491200
  C    -2.664900   -0.074500   -0.815100
  C    -1.542000    0.044300    0.221200
  O    -2.001600   -0.593900    1.438500
  C    -1.322000    1.537400    0.529500
  O    -2.520800    2.127700    1.043300
  P    -3.484800    2.882700    0.007100
  O    -3.076100    2.836800   -1.424400
  O    -4.916400    2.236800    0.297200
  O    -3.618400    4.360100    0.592400
  C    -0.232100   -0.637600   -0.297100
  O    -0.005400   -0.217800   -1.639100
  O     0.861100   -0.124700    0.475600
  C     2.106500   -0.846200    0.459800
  C     2.787000   -0.828100   -0.925000
  O     2.703900    0.436700   -1.564700
  P     3.482200    1.679900   -0.920500
  O     4.754400    1.398500   -0.220100
  O     2.372300    2.422900   -0.055800
  O     3.601500    2.677400   -2.157000
  C     1.930000   -2.284200    0.985700
  O     2.441800   -2.380800    2.332200
  C     0.454700   -2.699100    1.008900
  O     0.389700   -4.135300    1.080200
  C    -0.287000   -2.196700   -0.232700
  O    -1.610300   -2.746200   -0.227600
  H    -2.376800   -0.035100   -1.880500
  H    -2.749100   -0.040200    1.751300
  H    -0.592200    1.648800    1.328200
  H    -0.945400    2.095400   -0.334400
  H    -4.946400    1.330300   -0.091500
  H    -4.000800    4.965400   -0.068900
  H     0.623100    0.538200   -1.575400
  H     2.756800   -0.288100    1.147100
  H     3.838300   -1.121100   -0.840900
  H     2.315400   -1.549100   -1.595100
  H     2.710500    3.262500    0.303700
  H     4.317900    2.417400   -2.768400
  H     2.533300   -2.993400    0.394100
  H     2.180800   -3.272000    2.647600
  H    -0.036000   -2.341300    1.919500
  H    -0.491200   -4.376100    0.725100
  H     0.182900   -2.622900   -1.123100
  H    -2.067000   -2.397700    0.560500

----------------------------
CARTESIAN COORDINATES (A.U.)
----------------------------
  NO LB    ZA    FRAG    MASS        X           Y           Z
   0 O   8.0000    0    15.999   -7.288863   -0.183303   -0.928233
   1 C   6.0000    0    12.011   -5.035931   -0.140785   -1.540316
   2 C   6.0000    0    12.011   -2.913958    0.083715    0.418007
   3 O   8.0000    0    15.999   -3.782476   -1.122308    2.718371
   4 C   6.0000    0    12.011   -2.498218    2.905265    1.000610
   5 O   8.0000    0    15.999   -4.763622    4.020770    1.971551
   6 P  15.0000    0    30.974   -6.585318    5.447514    0.013417
   7 O   8.0000    0    15.999   -5.812987    5.360775   -2.691726
   8 O   8.0000    0    15.999   -9.290650    4.226939    0.561627
   9 O   8.0000    0    15.999   -6.837785    8.239395    1.119474
  10 C   6.0000    0    12.011   -0.438605   -1.204889   -0.561438
  11 O   8.0000    0    15.999   -0.010205   -0.411582   -3.097450
  12 O   8.0000    0    15.999    1.627243   -0.235649    0.898754
  13 C   6.0000    0    12.011    3.980708   -1.599086    0.868896
  14 C   6.0000    0    12.011    5.266667   -1.564882   -1.747997
  15 O   8.0000    0    15.999    5.109630    0.825243   -2.956854
  16 P  15.0000    0    30.974    6.580404    3.174551   -1.739493
  17 O   8.0000    0    15.999    8.984514    2.642782   -0.415929
  18 O   8.0000    0    15.999    4.482997    4.578617   -0.105447
  19 O   8.0000    0    15.999    6.805849    5.059553   -4.076139
  20 C   6.0000    0    12.011    3.647171   -4.316512    1.862703
  21 O   8.0000    0    15.999    4.614333   -4.499060    4.407219
  22 C   6.0000    0    12.011    0.859258   -5.100560    1.906545
  23 O   8.0000    0    15.999    0.736426   -7.814584    2.041282
  24 C   6.0000    0    12.011   -0.542351   -4.151161   -0.439739
  25 O   8.0000    0    15.999   -3.043026   -5.189566   -0.430102
  26 H   1.0000    0     1.008   -4.491501   -0.066329   -3.553630
  27 H   1.0000    0     1.008   -5.195046   -0.075967    3.309477
  28 H   1.0000    0     1.008   -1.119096    3.115780    2.509934
  29 H   1.0000    0     1.008   -1.786547    3.959732   -0.631924
  30 H   1.0000    0     1.008   -9.347341    2.513903   -0.172910
  31 H   1.0000    0     1.008   -7.560416    9.383246   -0.130202
  32 H   1.0000    0     1.008    1.177488    1.017051   -2.977075
  33 H   1.0000    0     1.008    5.209597   -0.544430    2.167705
  34 H   1.0000    0     1.008    7.253336   -2.118572   -1.589071
  35 H   1.0000    0     1.008    4.375472   -2.927375   -3.014302
  36 H   1.0000    0     1.008    5.122103    6.165232    0.573910
  37 H   1.0000    0     1.008    8.159648    4.568224   -5.231518
  38 H   1.0000    0     1.008    4.787243   -5.656706    0.744741
  39 H   1.0000    0     1.008    4.121115   -6.183184    5.003239
  40 H   1.0000    0     1.008   -0.068030   -4.424416    3.627329
  41 H   1.0000    0     1.008   -0.928233   -8.269631    1.370240
  42 H   1.0000    0     1.008    0.345631   -4.956563   -2.122351
  43 H   1.0000    0     1.008   -3.906064   -4.530996    1.059191

      -----------------------------------------------------------      
     |                   =====================                   |     
     |                           x T B                           |     
     |                   =====================                   |     
     |                         S. Grimme                         |     
     |          Mulliken Center for Theoretical Chemistry        |     
     |                    University of Bonn                     |     
      -----------------------------------------------------------      

   * xtb version 6.5.1 (579679a) compiled by 'ehlert@majestix' on 2022-07-11

   xtb is free software: you can redistribute it and/or modify it under
   the terms of the GNU Lesser General Public License as published by
   the Free Software Foundation, either version 3 of the License, or
   (at your option) any later version.
   
   xtb is distributed in the hope that it will be useful,
   but WITHOUT ANY WARRANTY; without even the implied warranty of
   MERCHANTABILITY or FITNESS FOR A PARTICULAR PURPOSE.  See the
   GNU Lesser General Public License for more details.
   
   Cite this work as:
   * C. Bannwarth, E. Caldeweyher, S. Ehlert, A. Hansen, P. Pracht,
     J. Seibert, S. Spicher, S. Grimme, WIREs Comput. Mol. Sci., 2020, 11,
     e01493. DOI: 10.1002/wcms.1493
   
   for GFN2-xTB:
   * C. Bannwarth, S. Ehlert and S. Grimme., J. Chem. Theory Comput., 2019,
     15, 1652-1671. DOI: 10.1021/acs.jctc.8b01176
   for GFN1-xTB:
   * S. Grimme, C. Bannwarth, P. Shushkov, J. Chem. Theory Comput., 2017,
     13, 1989-2009. DOI: 10.1021/acs.jctc.7b00118
   for GFN0-xTB:
   * P. Pracht, E. Caldeweyher, S. Ehlert, S. Grimme, ChemRxiv, 2019, preprint.
     DOI: 10.26434/chemrxiv.8326202.v1
   for GFN-FF:
   * S. Spicher and S. Grimme, Angew. Chem. Int. Ed., 2020, 59, 15665-15673.
     DOI: 10.1002/anie.202004239
   
   for ALPB and GBSA implicit solvation:
   * S. Ehlert, M. Stahn, S. Spicher, S. Grimme, J. Chem. Theory Comput.,
     2021, 17, 4250-4261. DOI: 10.1021/acs.jctc.1c00471
   
   for DFT-D4:
   * E. Caldeweyher, C. Bannwarth and S. Grimme, J. Chem. Phys., 2017,
     147, 034112. DOI: 10.1063/1.4993215
   * E. Caldeweyher, S. Ehlert, A. Hansen, H. Neugebauer, S. Spicher,
     C. Bannwarth and S. Grimme, J. Chem. Phys., 2019, 150, 154122.
     DOI: 10.1063/1.5090222
   * E. Caldeweyher, J.-M. Mewes, S. Ehlert and S. Grimme, Phys. Chem. Chem. Phys.
     2020, 22, 8499-8512. DOI: 10.1039/D0CP00502A
   
   for sTDA-xTB:
   * S. Grimme and C. Bannwarth, J. Chem. Phys., 2016, 145, 054103.
     DOI: 10.1063/1.4959605
   
   in the mass-spec context:
   * V. Asgeirsson, C. Bauer and S. Grimme, Chem. Sci., 2017, 8, 4879.
     DOI: 10.1039/c7sc00601b
   * J. Koopman and S. Grimme, ACS Omega 2019, 4, 12, 15120-15133.
     DOI: 10.1021/acsomega.9b02011
   
   for metadynamics refer to:
   * S. Grimme, J. Chem. Theory Comput., 2019, 155, 2847-2862
     DOI: 10.1021/acs.jctc.9b00143
   
   for SPH calculations refer to:
   * S. Spicher and S. Grimme, J. Chem. Theory Comput., 2021, 17, 1701-1714
     DOI: 10.1021/acs.jctc.0c01306
   
   with help from (in alphabetical order)
   P. Atkinson, C. Bannwarth, F. Bohle, G. Brandenburg, E. Caldeweyher
   M. Checinski, S. Dohm, S. Ehlert, S. Ehrlich, I. Gerasimov, C. Hölzer
   A. Katbashev, J. Koopman, C. Lavigne, S. Lehtola, F. März, M. Müller,
   F. Musil, H. Neugebauer, J. Pisarek, C. Plett, P. Pracht, F. Pultar,
   J. Seibert, P. Shushkov, S. Spicher, M. Stahn, M. Steiner, T. Strunk,
   J. Stückrath, T. Rose, and J. Unsleber
   
 * started run on 2023/12/06 at 20:44:49.435     

           -------------------------------------------------
          |                Calculation Setup                |
           -------------------------------------------------

          program call               : otool_xtb /tmp/19_XTB.xyz --grad -c 0 -u 0 -P 1 --namespace /tmp/19 --input /tmp/19_XTB.input.tmp --acc 1.000000
          calculation namespace      : /tmp/19
          coordinate file            : /tmp/19_XTB.xyz
          omp threads                :                     1

   ID    Z sym.   atoms
    1    8 O      1, 4, 6, 8-10, 12, 13, 16, 18-20, 22, 24, 26
    2    6 C      2, 3, 5, 11, 14, 15, 21, 23, 25
    3   15 P      7, 17
    4    1 H      27-44

           -------------------------------------------------
          |                 G F N 2 - x T B                 |
           -------------------------------------------------

        Reference                      10.1021/acs.jctc.8b01176
      * Hamiltonian:
        H0-scaling (s, p, d)           1.850000    2.230000    2.230000
        zeta-weighting                 0.500000
      * Dispersion:
        s8                             2.700000
        a1                             0.520000
        a2                             5.000000
        s9                             5.000000
      * Repulsion:
        kExp                           1.500000    1.000000
        rExp                           1.000000
      * Coulomb:
        alpha                          2.000000
        third order                    shell-resolved
        anisotropic                    true
        a3                             3.000000
        a5                             4.000000
        cn-shift                       1.200000
        cn-exp                         4.000000
        max-rad                        5.000000


          ...................................................
          :                      SETUP                      :
          :.................................................:
          :  # basis functions                 134          :
          :  # atomic orbitals                 132          :
          :  # shells                           72          :
          :  # electrons                       154          :
          :  max. iterations                   250          :
          :  Hamiltonian                  GFN2-xTB          :
          :  restarted?                      false          :
          :  GBSA solvation                  false          :
          :  PC potential                    false          :
          :  electronic temp.          300.0000000     K    :
          :  accuracy                    1.0000000          :
          :  -> integral cutoff          0.2500000E+02      :
          :  -> integral neglect         0.1000000E-07      :
          :  -> SCF convergence          0.1000000E-05 Eh   :
          :  -> wf. convergence          0.1000000E-03 e    :
          :  Broyden damping             0.4000000          :
          ...................................................

 iter      E             dE          RMSdq      gap      omega  full diag
   1    -95.1765956 -0.951766E+02  0.718E+00    3.73       0.0  T
   2    -95.3018704 -0.125275E+00  0.412E+00    3.08       1.0  T
   3    -95.3155493 -0.136789E-01  0.123E+00    3.25       1.0  T
   4    -95.3319895 -0.164402E-01  0.528E-01    2.93       1.0  T
   5    -95.3342355 -0.224599E-02  0.258E-01    3.17       1.0  T
   6    -95.3348291 -0.593617E-03  0.850E-02    3.09       1.0  T
   7    -95.3348713 -0.421637E-04  0.443E-02    3.10       1.0  T
   8    -95.3348827 -0.114120E-04  0.144E-02    3.10       1.0  T
   9    -95.3348841 -0.138113E-05  0.572E-03    3.10       2.6  T
  10    -95.3348842 -0.166219E-06  0.196E-03    3.10       7.7  T
  11    -95.3348842 -0.261804E-07  0.754E-04    3.10      20.0  T
  12    -95.3348842 -0.308600E-08  0.230E-04    3.10      65.5  T

   *** convergence criteria satisfied after 12 iterations ***

         #    Occupation            Energy/Eh            Energy/eV
      -------------------------------------------------------------
         1        2.0000           -0.7602155             -20.6865
       ...           ...                  ...                  ...
        71        2.0000           -0.4482842             -12.1984
        72        2.0000           -0.4459877             -12.1359
        73        2.0000           -0.4433019             -12.0629
        74        2.0000           -0.4403995             -11.9839
        75        2.0000           -0.4323239             -11.7641
        76        2.0000           -0.4284601             -11.6590
        77        2.0000           -0.4260932             -11.5946 (HOMO)
        78                         -0.3121351              -8.4936 (LUMO)
        79                         -0.1043287              -2.8389
        80                         -0.0927687              -2.5244
        81                         -0.0715377              -1.9466
        82                         -0.0634287              -1.7260
       ...                                ...                  ...
       132                          1.1935393              32.4779
      -------------------------------------------------------------
                  HL-Gap            0.1139581 Eh            3.1010 eV
             Fermi-level           -0.3691141 Eh          -10.0441 eV

 SCC (total)                   0 d,  0 h,  0 min,  0.088 sec
 SCC setup                      ...        0 min,  0.000 sec (  0.357%)
 Dispersion                     ...        0 min,  0.000 sec (  0.526%)
 classical contributions        ...        0 min,  0.000 sec (  0.119%)
 integral evaluation            ...        0 min,  0.012 sec ( 13.964%)
 iterations                     ...        0 min,  0.035 sec ( 39.663%)
 molecular gradient             ...        0 min,  0.040 sec ( 44.934%)
 printout                       ...        0 min,  0.000 sec (  0.412%)

         :::::::::::::::::::::::::::::::::::::::::::::::::::::
         ::                     SUMMARY                     ::
         :::::::::::::::::::::::::::::::::::::::::::::::::::::
         :: total energy             -94.773583261944 Eh    ::
         :: gradient norm              0.117406345173 Eh/a0 ::
         :: HOMO-LUMO gap              3.100956649494 eV    ::
         ::.................................................::
         :: SCC energy               -95.334884248877 Eh    ::
         :: -> isotropic ES            0.379013104449 Eh    ::
         :: -> anisotropic ES         -0.018313343344 Eh    ::
         :: -> anisotropic XC         -0.009094359531 Eh    ::
         :: -> dispersion             -0.051424784538 Eh    ::
         :: repulsion energy           0.560368270994 Eh    ::
         :: add. restraining           0.000000000000 Eh    ::
         :: total charge              -0.000000000000 e     ::
         :::::::::::::::::::::::::::::::::::::::::::::::::::::


Property printout bound to 'properties.out'

           -------------------------------------------------
          | TOTAL ENERGY              -94.773583261944 Eh   |
          | GRADIENT NORM               0.117406345173 Eh/α |
          | HOMO-LUMO GAP               3.100956649494 eV   |
           -------------------------------------------------

------------------------------------------------------------------------
 * finished run on 2023/12/06 at 20:44:49.542     
------------------------------------------------------------------------
 total:
 * wall-time:     0 d,  0 h,  0 min,  0.107 sec
 *  cpu-time:     0 d,  0 h,  0 min,  0.104 sec
 * ratio c/w:     0.968 speedup
 SCF:
 * wall-time:     0 d,  0 h,  0 min,  0.089 sec
 *  cpu-time:     0 d,  0 h,  0 min,  0.088 sec
 * ratio c/w:     0.994 speedup


-------------------------   --------------------
FINAL SINGLE POINT ENERGY       -94.773583261940
-------------------------   --------------------

------------------------------------------------------------------------------
                         ORCA GEOMETRY RELAXATION STEP
------------------------------------------------------------------------------

Reading the OPT-File                    .... done
Getting information on internals        .... done
Copying old internal coords+grads       .... done
Making the new internal coordinates     .... (new redundants).... done
Validating the new internal coordinates .... (new redundants).... done
Calculating the B-matrix                .... done
Calculating the G,G- and P matrices     .... done
Transforming gradient to internals      .... done
Projecting the internal gradient        .... done
Number of atoms                         ....  44
Number of internal coordinates          .... 233
Current Energy                          ....   -94.773583262 Eh
Current gradient norm                   ....     0.117406345 Eh/bohr
Maximum allowed component of the step   ....  0.300
Current trust radius                    ....  0.300
Evaluating the initial hessian          ....  (Almloef) done
Projecting the Hessian                  .... done
Forming the augmented Hessian           .... done
Diagonalizing the augmented Hessian     .... done
Last element of RFO vector              ....  0.938910495
Lowest eigenvalues of augmented Hessian:
 -0.023807447  0.008812796  0.010189496  0.010253891  0.010404311
Length of the computed step             ....  0.366554023
Warning: the length of the step is outside the trust region - taking restricted step instead
The input lambda is                     ....    -0.023807
   iter:   1  x=   -0.034756  g=    4.051682 f(x)=     0.044362
   iter:   2  x=   -0.040464  g=    2.135533 f(x)=     0.012189
   iter:   3  x=   -0.041376  g=    1.644002 f(x)=     0.001499
   iter:   4  x=   -0.041394  g=    1.582165 f(x)=     0.000028
   iter:   5  x=   -0.041394  g=    1.580982 f(x)=     0.000000
   iter:   6  x=   -0.041394  g=    1.580981 f(x)=     0.000000
The output lambda is                    ....    -0.041394 (6 iterations)
The final length of the internal step   ....  0.300000000
Converting the step to cartesian space:
 Initial RMS(Int)=    0.0196536535
Transforming coordinates:
 Iter   0:  RMS(Cart)=    0.1138450318 RMS(Int)=    0.4103404845
 Iter   1:  RMS(Cart)=    0.0043126149 RMS(Int)=    0.0022447145
 Iter   2:  RMS(Cart)=    0.0004557253 RMS(Int)=    0.0000935770
 Iter   3:  RMS(Cart)=    0.0000540490 RMS(Int)=    0.0000280125
 Iter   4:  RMS(Cart)=    0.0000063959 RMS(Int)=    0.0000015774
 Iter   5:  RMS(Cart)=    0.0000007718 RMS(Int)=    0.0000003912
 Iter   6:  RMS(Cart)=    0.0000000914 RMS(Int)=    0.0000000248
done
Storing new coordinates                 .... done

                                .--------------------.
          ----------------------|Geometry convergence|-------------------------
          Item                value                   Tolerance       Converged
          ---------------------------------------------------------------------
          RMS gradient        0.0065801233            0.0001000000      NO
          MAX gradient        0.0468335525            0.0003000000      NO
          RMS step            0.0196536535            0.0020000000      NO
          MAX step            0.0797892653            0.0040000000      NO
          ........................................................
          Max(Bonds)      0.0241      Max(Angles)    2.62
          Max(Dihed)        4.57      Max(Improp)    0.00
          ---------------------------------------------------------------------

The optimization has not yet converged - more geometry cycles are needed


    ---------------------------------------------------------------------------
                         Redundant Internal Coordinates
                            (Angstroem and degrees)

        Definition                    Value    dE/dq     Step     New-Value
    ----------------------------------------------------------------------------
     1. B(C   1,O   0)                1.2356  0.046834 -0.0241    1.2115   
     2. B(C   2,C   1)                1.5326  0.011921 -0.0153    1.5173   
     3. B(O   3,C   2)                1.4493  0.019834 -0.0214    1.4279   
     4. B(C   4,C   2)                1.5404  0.007188 -0.0095    1.5309   
     5. B(O   5,C   4)                1.4316  0.011988 -0.0122    1.4195   
     6. B(P   6,O   5)                1.6041  0.002809 -0.0017    1.6024   
     7. B(O   7,P   6)                1.4894  0.026556 -0.0104    1.4790   
     8. B(O   8,P   6)                1.5971  0.006266 -0.0036    1.5935   
     9. B(O   9,P   6)                1.5947  0.010262 -0.0059    1.5889   
    10. B(C  10,C   2)                1.5651  0.015033 -0.0215    1.5436   
    11. B(O  11,C  10)                1.4243  0.014320 -0.0142    1.4101   
    12. B(O  12,C  10)                1.4336  0.013475 -0.0157    1.4179   
    13. B(C  13,O  12)                1.4394  0.014718 -0.0170    1.4224   
    14. B(C  14,C  13)                1.5431  0.007341 -0.0098    1.5333   
    15. B(O  15,C  14)                1.4198  0.007098 -0.0069    1.4129   
    16. B(P  16,O  15)                1.6020  0.006684 -0.0039    1.5981   
    17. B(O  17,P  16)                1.4793  0.020614 -0.0078    1.4715   
    18. B(O  18,P  16)                1.5911  0.002487 -0.0014    1.5897   
    19. B(O  19,P  16)                1.5932  0.000931 -0.0005    1.5926   
    20. B(C  20,C  13)                1.5413  0.006675 -0.0086    1.5327   
    21. B(O  21,C  20)                1.4437  0.017341 -0.0183    1.4254   
    22. B(C  22,C  20)                1.5327  0.006793 -0.0062    1.5265   
    23. B(O  23,C  22)                1.4394  0.014718 -0.0153    1.4241   
    24. B(C  24,C  22)                1.5310  0.003211 -0.0023    1.5287   
    25. B(C  24,C  10)                1.5614  0.013814 -0.0199    1.5415   
    26. B(O  25,C  24)                1.4329  0.019312 -0.0197    1.4132   
    27. B(H  26,C   1)                1.1044  0.005927 -0.0082    1.0962   
    28. B(H  27,O   3)                0.9814  0.010474 -0.0106    0.9708   
    29. B(H  28,C   4)                1.0876 -0.004054  0.0053    1.0929   
    30. B(H  29,C   4)                1.0952  0.002120 -0.0028    1.0924   
    31. B(H  30,O   8)                0.9868  0.017709 -0.0183    0.9685   
    32. B(H  31,O   9)                0.9746  0.016007 -0.0159    0.9588   
    33. B(H  32,O  11)                0.9852  0.012537 -0.0129    0.9723   
    34. B(H  33,C  13)                1.0985  0.002649 -0.0036    1.0949   
    35. B(H  34,C  14)                1.0946  0.000151 -0.0002    1.0944   
    36. B(H  35,C  14)                1.0915 -0.002005  0.0027    1.0941   
    37. B(H  36,O  18)                0.9739  0.015395 -0.0152    0.9587   
    38. B(H  37,O  19)                0.9771  0.017432 -0.0174    0.9596   
    39. B(H  38,C  20)                1.1031  0.002690 -0.0037    1.0994   
    40. B(H  39,O  21)                0.9807  0.012767 -0.0129    0.9678   
    41. B(H  40,C  22)                1.0945 -0.003195  0.0043    1.0988   
    42. B(H  41,O  23)                0.9798  0.009337 -0.0094    0.9704   
    43. B(H  42,C  24)                1.0933 -0.000120  0.0002    1.0934   
    44. B(H  43,O  25)                0.9753  0.003132 -0.0031    0.9721   
    45. A(C   2,C   1,H  26)          117.28  0.001491   -0.14    117.14   
    46. A(O   0,C   1,C   2)          122.08  0.004193   -0.44    121.64   
    47. A(O   0,C   1,H  26)          120.35 -0.005934    0.89    121.24   
    48. A(C   4,C   2,C  10)          111.66  0.000443   -0.50    111.16   
    49. A(O   3,C   2,C   4)          107.70 -0.002854    0.88    108.58   
    50. A(C   1,C   2,O   3)          107.55 -0.003220    1.18    108.73   
    51. A(O   3,C   2,C  10)          110.59  0.003491   -0.82    109.77   
    52. A(C   1,C   2,C  10)          110.82 -0.000134   -0.27    110.55   
    53. A(C   1,C   2,C   4)          108.37  0.002043   -0.37    108.00   
    54. A(C   2,O   3,H  27)          105.12 -0.002317    0.34    105.46   
    55. A(C   2,C   4,H  29)          112.65  0.003609   -1.00    111.65   
    56. A(H  28,C   4,H  29)          107.24 -0.004081    1.22    108.46   
    57. A(O   5,C   4,H  29)          111.16 -0.001289   -0.17    110.99   
    58. A(C   2,C   4,O   5)          110.60  0.002941   -0.64    109.96   
    59. A(O   5,C   4,H  28)          104.84 -0.004631    1.14    105.97   
    60. A(C   2,C   4,H  28)          110.00  0.002695   -0.33    109.68   
    61. A(C   4,O   5,P   6)          117.74  0.003182   -0.36    117.38   
    62. A(O   5,P   6,O   7)          116.20  0.006156   -0.75    115.45   
    63. A(O   7,P   6,O   8)          114.08 -0.006771    1.29    115.37   
    64. A(O   8,P   6,O   9)          103.47  0.006450   -0.65    102.82   
    65. A(O   7,P   6,O   9)          113.85 -0.005753    0.48    114.33   
    66. A(O   5,P   6,O   9)          104.44  0.009385   -1.55    102.89   
    67. A(O   5,P   6,O   8)          103.36 -0.008501    1.03    104.39   
    68. A(P   6,O   8,H  30)          109.10 -0.002273    0.29    109.39   
    69. A(P   6,O   9,H  31)          111.05  0.004861   -0.61    110.44   
    70. A(C   2,C  10,C  24)          113.08  0.003865   -1.59    111.49   
    71. A(O  12,C  10,C  24)          111.21 -0.004139    0.69    111.90   
    72. A(C   2,C  10,O  11)          108.47 -0.002507    0.26    108.73   
    73. A(O  11,C  10,O  12)          106.32 -0.005964    2.62    108.94   
    74. A(O  11,C  10,C  24)          109.80  0.003633   -0.62    109.18   
    75. A(C   2,C  10,O  12)          107.69  0.004506   -1.10    106.59   
    76. A(C  10,O  11,H  32)          105.47 -0.008035    1.17    106.65   
    77. A(C  10,O  12,C  13)          118.33  0.001569   -0.44    117.89   
    78. A(C  20,C  13,H  33)          109.17  0.002027   -0.30    108.86   
    79. A(C  14,C  13,H  33)          107.13 -0.001513    0.29    107.41   
    80. A(O  12,C  13,H  33)          104.52  0.000811   -0.55    103.96   
    81. A(O  12,C  13,C  14)          112.68  0.003824   -0.49    112.18   
    82. A(C  14,C  13,C  20)          111.57 -0.001832    0.47    112.04   
    83. A(O  12,C  13,C  20)          111.40 -0.003065    0.51    111.91   
    84. A(O  15,C  14,H  35)          106.65  0.000373   -0.16    106.49   
    85. A(O  15,C  14,H  34)          109.23 -0.004413    0.33    109.55   
    86. A(C  13,C  14,H  34)          110.58  0.004721   -1.00    109.57   
    87. A(C  13,C  14,O  15)          112.89  0.006373   -1.25    111.64   
    88. A(C  13,C  14,H  35)          110.65 -0.004452    0.88    111.53   
    89. A(H  34,C  14,H  35)          106.58 -0.003359    1.39    107.97   
    90. A(C  14,O  15,P  16)          118.80  0.006245   -0.70    118.09   
    91. A(O  18,P  16,O  19)          100.47 -0.003101    0.61    101.08   
    92. A(O  17,P  16,O  19)          114.97 -0.001895    0.39    115.36   
    93. A(O  15,P  16,O  19)          102.13  0.000313   -0.12    102.01   
    94. A(O  17,P  16,O  18)          115.56 -0.003392    0.47    116.03   
    95. A(O  15,P  16,O  18)          104.01  0.003295   -0.52    103.48   
    96. A(O  15,P  16,O  17)          117.43  0.004436   -0.75    116.67   
    97. A(P  16,O  18,H  36)          111.16  0.001938   -0.24    110.92   
    98. A(P  16,O  19,H  37)          111.96  0.000670   -0.08    111.88   
    99. A(C  13,C  20,O  21)          109.88  0.004358   -1.10    108.78   
   100. A(O  21,C  20,H  38)          105.26 -0.002060    1.15    106.41   
   101. A(C  22,C  20,H  38)          111.13  0.001250   -0.49    110.64   
   102. A(C  13,C  20,C  22)          111.59  0.004520   -0.71    110.88   
   103. A(O  21,C  20,C  22)          108.00 -0.005978    1.11    109.11   
   104. A(C  13,C  20,H  38)          110.74 -0.002501    0.15    110.89   
   105. A(C  20,O  21,H  39)          105.45 -0.003151    0.46    105.91   
   106. A(O  23,C  22,C  24)          110.22  0.001461   -0.31    109.92   
   107. A(C  20,C  22,C  24)          111.42 -0.001265    0.19    111.61   
   108. A(C  24,C  22,H  40)          110.50  0.001300   -0.47    110.03   
   109. A(O  23,C  22,H  40)          105.35 -0.004488    1.56    106.91   
   110. A(C  20,C  22,H  40)          110.83  0.003106   -0.83    110.00   
   111. A(C  20,C  22,O  23)          108.32 -0.000277   -0.08    108.24   
   112. A(C  22,O  23,H  41)          105.54 -0.002609    0.38    105.92   
   113. A(C  22,C  24,O  25)          108.58 -0.003646    0.71    109.30   
   114. A(C  10,C  24,O  25)          114.55  0.002498   -0.94    113.61   
   115. A(C  10,C  24,C  22)          110.13  0.002875   -0.31    109.82   
   116. A(O  25,C  24,H  42)          104.50 -0.000348    0.30    104.79   
   117. A(C  22,C  24,H  42)          108.92 -0.002517    0.68    109.61   
   118. A(C  10,C  24,H  42)          109.91  0.000669   -0.33    109.58   
   119. A(C  24,O  25,H  43)          107.36  0.000224   -0.03    107.32   
   120. D(C  10,C   2,C   1,O   0)    151.75  0.001830   -1.68    150.06   
   121. D(C   4,C   2,C   1,H  26)     88.42  0.000626    0.60     89.03   
   122. D(C   4,C   2,C   1,O   0)    -85.41  0.003659   -2.72    -88.13   
   123. D(O   3,C   2,C   1,O   0)     30.75 -0.000327   -1.26     29.49   
   124. D(O   3,C   2,C   1,H  26)   -155.41 -0.003361    2.06   -153.35   
   125. D(C  10,C   2,C   1,H  26)    -34.42 -0.001203    1.64    -32.78   
   126. D(H  27,O   3,C   2,C   4)     50.81 -0.000404    0.27     51.08   
   127. D(H  27,O   3,C   2,C  10)    173.07  0.000445   -0.28    172.79   
   128. D(H  27,O   3,C   2,C   1)    -65.79  0.000334   -0.36    -66.15   
   129. D(O   5,C   4,C   2,O   3)    -56.48  0.003666   -0.99    -57.47   
   130. D(H  28,C   4,C   2,C   1)    174.92 -0.002895    1.49    176.41   
   131. D(O   5,C   4,C   2,C  10)   -178.08  0.000949   -0.24   -178.32   
   132. D(H  29,C   4,C   2,O   3)    178.44  0.000376    0.49    178.93   
   133. D(H  28,C   4,C   2,C  10)    -62.74 -0.001388    0.57    -62.16   
   134. D(H  28,C   4,C   2,O   3)     58.86  0.001329   -0.17     58.69   
   135. D(O   5,C   4,C   2,C   1)     59.58 -0.000557    0.67     60.25   
   136. D(H  29,C   4,C   2,C  10)     56.84 -0.002341    1.23     58.07   
   137. D(H  29,C   4,C   2,C   1)    -65.50 -0.003848    2.15    -63.35   
   138. D(P   6,O   5,C   4,H  29)     30.57  0.002883    0.40     30.96   
   139. D(P   6,O   5,C   4,H  28)    146.11 -0.005099    2.38    148.49   
   140. D(P   6,O   5,C   4,C   2)    -95.35 -0.003074    2.31    -93.04   
   141. D(O   9,P   6,O   5,C   4)   -123.08 -0.002426    3.71   -119.37   
   142. D(O   8,P   6,O   5,C   4)    128.96 -0.009595    4.57    133.53   
   143. D(O   7,P   6,O   5,C   4)      3.21  0.001754    2.59      5.80   
   144. D(H  30,O   8,P   6,O   7)     51.92  0.001398   -0.21     51.71   
   145. D(H  30,O   8,P   6,O   5)    -75.17  0.004196   -0.85    -76.02   
   146. D(H  30,O   8,P   6,O   9)    176.14 -0.005252    0.70    176.84   
   147. D(H  31,O   9,P   6,O   8)    -86.15  0.001410   -0.61    -86.76   
   148. D(H  31,O   9,P   6,O   7)     38.23 -0.005908    0.82     39.05   
   149. D(H  31,O   9,P   6,O   5)    165.98  0.005254   -0.99    164.98   
   150. D(O  11,C  10,C   2,C   1)     46.50  0.004963   -1.60     44.89   
   151. D(C  24,C  10,C   2,O   3)     43.63 -0.002280    0.82     44.45   
   152. D(C  24,C  10,C   2,C   1)    -75.55 -0.000428    0.06    -75.49   
   153. D(O  12,C  10,C   2,C   4)     40.26 -0.003767    2.02     42.28   
   154. D(O  12,C  10,C   2,O   3)    -79.65 -0.002809    1.79    -77.86   
   155. D(O  12,C  10,C   2,C   1)    161.18 -0.000957    1.02    162.19   
   156. D(O  11,C  10,C   2,C   4)    -74.42  0.002153   -0.60    -75.02   
   157. D(C  24,C  10,C   2,C   4)    163.54 -0.003238    1.05    164.59   
   158. D(O  11,C  10,C   2,O   3)    165.67  0.003111   -0.83    164.84   
   159. D(H  32,O  11,C  10,C  24)   -140.10  0.003776   -1.21   -141.31   
   160. D(H  32,O  11,C  10,O  12)    -19.69 -0.002693    0.82    -18.87   
   161. D(H  32,O  11,C  10,C   2)     95.88 -0.001724    1.00     96.88   
   162. D(C  13,O  12,C  10,O  11)    -80.90 -0.000999   -0.27    -81.16   
   163. D(C  13,O  12,C  10,C  24)     38.60 -0.002558    0.96     39.56   
   164. D(C  13,O  12,C  10,C   2)    163.01  0.002698   -1.34    161.67   
   165. D(H  33,C  13,O  12,C  10)   -177.71  0.000501    0.11   -177.60   
   166. D(C  20,C  13,O  12,C  10)    -59.96  0.001841   -0.31    -60.27   
   167. D(C  14,C  13,O  12,C  10)     66.32 -0.000058    0.34     66.66   
   168. D(H  35,C  14,C  13,H  33)    167.09 -0.002574    1.14    168.23   
   169. D(H  35,C  14,C  13,C  20)     47.67 -0.003040    1.06     48.73   
   170. D(H  34,C  14,C  13,O  12)    163.64  0.003500   -1.26    162.38   
   171. D(O  15,C  14,C  13,H  33)    -73.46 -0.000927    0.72    -72.75   
   172. D(O  15,C  14,C  13,C  20)    167.11 -0.001393    0.63    167.75   
   173. D(H  34,C  14,C  13,H  33)     49.24  0.001410   -0.50     48.74   
   174. D(O  15,C  14,C  13,O  12)     40.93  0.001164   -0.04     40.89   
   175. D(H  34,C  14,C  13,C  20)    -70.18  0.000943   -0.58    -70.76   
   176. D(H  35,C  14,C  13,O  12)    -78.51 -0.000483    0.38    -78.13   
   177. D(P  16,O  15,C  14,H  35)   -172.00  0.002845   -1.75   -173.75   
   178. D(P  16,O  15,C  14,H  34)    -57.19 -0.003047   -0.05    -57.24   
   179. D(P  16,O  15,C  14,C  13)     66.27  0.004235   -1.97     64.30   
   180. D(O  19,P  16,O  15,C  14)    159.37  0.001276   -0.49    158.88   
   181. D(O  18,P  16,O  15,C  14)    -96.44 -0.001003   -0.02    -96.46   
   182. D(O  17,P  16,O  15,C  14)     32.64  0.000585   -0.40     32.24   
   183. D(H  36,O  18,P  16,O  19)    -67.91  0.003125   -1.36    -69.28   
   184. D(H  36,O  18,P  16,O  17)     56.44 -0.003275   -0.19     56.24   
   185. D(H  36,O  18,P  16,O  15)   -173.36  0.002894   -1.29   -174.65   
   186. D(H  37,O  19,P  16,O  18)    174.54 -0.002946    0.12    174.66   
   187. D(H  37,O  19,P  16,O  17)     49.79  0.004425   -1.10     48.69   
   188. D(H  37,O  19,P  16,O  15)    -78.52 -0.000260   -0.29    -78.81   
   189. D(H  38,C  20,C  13,H  33)   -104.56  0.003456   -1.91   -106.48   
   190. D(H  38,C  20,C  13,C  14)     13.64  0.001764   -1.47     12.18   
   191. D(H  38,C  20,C  13,O  12)    140.52  0.003001   -1.35    139.17   
   192. D(C  22,C  20,C  13,H  33)    131.07  0.000382   -0.88    130.20   
   193. D(C  22,C  20,C  13,C  14)   -110.72 -0.001310   -0.43   -111.15   
   194. D(C  22,C  20,C  13,O  12)     16.16 -0.000073   -0.31     15.85   
   195. D(O  21,C  20,C  13,H  33)     11.31  0.002079   -1.09     10.22   
   196. D(O  21,C  20,C  13,C  14)    129.51  0.000387   -0.64    128.87   
   197. D(O  21,C  20,C  13,O  12)   -103.60  0.001624   -0.52   -104.13   
   198. D(H  39,O  21,C  20,H  38)    -68.80  0.000085    0.03    -68.76   
   199. D(H  39,O  21,C  20,C  22)     49.99 -0.002466    0.61     50.60   
   200. D(H  39,O  21,C  20,C  13)    171.92  0.001963   -0.23    171.70   
   201. D(H  40,C  22,C  20,H  38)    152.50 -0.004561    2.06    154.57   
   202. D(H  40,C  22,C  20,O  21)     37.52  0.000691    0.31     37.83   
   203. D(H  40,C  22,C  20,C  13)    -83.35 -0.003571    1.38    -81.97   
   204. D(C  24,C  22,C  20,H  38)    -84.01 -0.001545    0.99    -83.01   
   205. D(C  24,C  22,C  20,O  21)    161.01  0.003707   -0.76    160.25   
   206. D(C  24,C  22,C  20,C  13)     40.14 -0.000555    0.31     40.45   
   207. D(O  23,C  22,C  20,H  38)     37.40 -0.000704    0.68     38.08   
   208. D(O  23,C  22,C  20,O  21)    -77.59  0.004548   -1.07    -78.66   
   209. D(O  23,C  22,C  20,C  13)    161.54  0.000286   -0.00    161.54   
   210. D(H  41,O  23,C  22,H  40)     84.31 -0.000819    0.47     84.78   
   211. D(H  41,O  23,C  22,C  24)    -34.91 -0.000537    0.29    -34.62   
   212. D(H  41,O  23,C  22,C  20)   -157.05  0.000292    0.29   -156.76   
   213. D(H  42,C  24,C  22,O  23)    -60.19 -0.000509    0.53    -59.65   
   214. D(H  42,C  24,C  22,C  20)     60.10 -0.000709    0.36     60.46   
   215. D(O  25,C  24,C  22,H  40)    -62.99 -0.000257    0.15    -62.84   
   216. D(O  25,C  24,C  22,C  20)    173.33 -0.004296    1.43    174.76   
   217. D(C  10,C  24,C  22,H  40)     63.18  0.002321   -0.75     62.43   
   218. D(C  10,C  24,C  22,O  23)    179.21 -0.001518    0.70    179.92   
   219. D(C  10,C  24,C  22,C  20)    -60.50 -0.001718    0.53    -59.97   
   220. D(H  42,C  24,C  10,O  12)    -98.36  0.004441   -1.66   -100.02   
   221. D(H  42,C  24,C  10,O  11)     19.03 -0.003154    1.59     20.63   
   222. D(H  42,C  24,C  10,C   2)    140.33 -0.001133    0.40    140.73   
   223. D(O  25,C  24,C  10,O  12)    144.37  0.002810   -1.20    143.17   
   224. D(O  25,C  24,C  10,O  11)    -98.24 -0.004786    2.05    -96.18   
   225. D(O  25,C  24,C  22,O  23)     53.05 -0.004096    1.60     54.65   
   226. D(O  25,C  24,C  10,C   2)     23.06 -0.002764    0.86     23.91   
   227. D(C  22,C  24,C  10,O  12)     21.65  0.003561   -1.22     20.43   
   228. D(C  22,C  24,C  10,O  11)    139.04 -0.004035    2.03    141.08   
   229. D(H  42,C  24,C  22,H  40)   -176.22  0.003330   -0.92   -177.14   
   230. D(C  22,C  24,C  10,C   2)    -99.66 -0.002013    0.84    -98.83   
   231. D(H  43,O  25,C  24,H  42)    179.44 -0.003118    1.51    180.95   
   232. D(H  43,O  25,C  24,C  22)     63.32  0.001598    0.26     63.57   
   233. D(H  43,O  25,C  24,C  10)    -60.24 -0.001112    0.77    -59.47   
    ----------------------------------------------------------------------------

         *************************************************************
         *                GEOMETRY OPTIMIZATION CYCLE   2            *
         *************************************************************
---------------------------------
CARTESIAN COORDINATES (ANGSTROEM)
---------------------------------
  O    -3.782420   -0.128495   -0.438801
  C    -2.624386   -0.075057   -0.790749
  C    -1.493027    0.047341    0.212850
  O    -1.891072   -0.581804    1.431312
  C    -1.261936    1.535943    0.485478
  O    -2.441157    2.119706    1.017974
  P    -3.459144    2.798865   -0.016514
  O    -3.121435    2.626215   -1.446028
  O    -4.890423    2.249477    0.418158
  O    -3.500073    4.311484    0.468063
  C    -0.213469   -0.625219   -0.328427
  O    -0.036064   -0.243258   -1.674182
  O     0.865595   -0.119044    0.439684
  C     2.088023   -0.846135    0.430051
  C     2.761818   -0.827297   -0.947141
  O     2.673341    0.446079   -1.552891
  P     3.420861    1.669122   -0.846378
  O     4.664271    1.355368   -0.124797
  O     2.273278    2.360494    0.009330
  O     3.572066    2.703708   -2.047735
  C     1.909662   -2.271787    0.963722
  O     2.436804   -2.336254    2.286492
  C     0.433828   -2.660411    0.994757
  O     0.348166   -4.079762    1.073411
  C    -0.305797   -2.161868   -0.246735
  O    -1.632233   -2.648988   -0.227041
  H    -2.353317   -0.065078   -1.852837
  H    -2.622212   -0.042875    1.774015
  H    -0.494101    1.654491    1.254163
  H    -0.935805    2.064146   -0.413375
  H    -4.987464    1.333361    0.119325
  H    -3.891375    4.868857   -0.206837
  H     0.590863    0.499956   -1.672485
  H     2.732455   -0.288781    1.117755
  H     3.813739   -1.111219   -0.844364
  H     2.287539   -1.532728   -1.635989
  H     2.590557    3.167172    0.418899
  H     4.298960    2.471975   -2.629835
  H     2.486967   -2.989967    0.363966
  H     2.185485   -3.205355    2.630262
  H    -0.041030   -2.260709    1.901467
  H    -0.526140   -4.313476    0.723166
  H     0.140497   -2.603878   -1.141757
  H    -2.070398   -2.264214    0.550799

----------------------------
CARTESIAN COORDINATES (A.U.)
----------------------------
  NO LB    ZA    FRAG    MASS        X           Y           Z
   0 O   8.0000    0    15.999   -7.147738   -0.242820   -0.829213
   1 C   6.0000    0    12.011   -4.959370   -0.141837   -1.494300
   2 C   6.0000    0    12.011   -2.821412    0.089461    0.402229
   3 O   8.0000    0    15.999   -3.573608   -1.099449    2.704788
   4 C   6.0000    0    12.011   -2.384714    2.902511    0.917421
   5 O   8.0000    0    15.999   -4.613117    4.005663    1.923693
   6 P  15.0000    0    30.974   -6.536836    5.289089   -0.031208
   7 O   8.0000    0    15.999   -5.898657    4.962827   -2.732596
   8 O   8.0000    0    15.999   -9.241561    4.250896    0.790205
   9 O   8.0000    0    15.999   -6.614179    8.147525    0.884512
  10 C   6.0000    0    12.011   -0.403398   -1.181493   -0.620637
  11 O   8.0000    0    15.999   -0.068150   -0.459691   -3.163746
  12 O   8.0000    0    15.999    1.635738   -0.224961    0.830882
  13 C   6.0000    0    12.011    3.945792   -1.598964    0.812678
  14 C   6.0000    0    12.011    5.219080   -1.563365   -1.789837
  15 O   8.0000    0    15.999    5.051882    0.842967   -2.934538
  16 P  15.0000    0    30.974    6.464491    3.154183   -1.599423
  17 O   8.0000    0    15.999    8.814195    2.561275   -0.235832
  18 O   8.0000    0    15.999    4.295873    4.460687    0.017632
  19 O   8.0000    0    15.999    6.750226    5.109267   -3.869658
  20 C   6.0000    0    12.011    3.608738   -4.293055    1.821170
  21 O   8.0000    0    15.999    4.604893   -4.414880    4.320844
  22 C   6.0000    0    12.011    0.819816   -5.027449    1.879819
  23 O   8.0000    0    15.999    0.657939   -7.709633    2.028452
  24 C   6.0000    0    12.011   -0.577872   -4.085339   -0.466261
  25 O   8.0000    0    15.999   -3.084474   -5.005862   -0.429046
  26 H   1.0000    0     1.008   -4.447124   -0.122981   -3.501355
  27 H   1.0000    0     1.008   -4.955262   -0.081022    3.352402
  28 H   1.0000    0     1.008   -0.933716    3.126534    2.370024
  29 H   1.0000    0     1.008   -1.768416    3.900670   -0.781166
  30 H   1.0000    0     1.008   -9.424941    2.519687    0.225491
  31 H   1.0000    0     1.008   -7.353634    9.200807   -0.390865
  32 H   1.0000    0     1.008    1.116570    0.944780   -3.160539
  33 H   1.0000    0     1.008    5.163592   -0.545718    2.112250
  34 H   1.0000    0     1.008    7.206922   -2.099900   -1.595617
  35 H   1.0000    0     1.008    4.322822   -2.896437   -3.091572
  36 H   1.0000    0     1.008    4.895443    5.985087    0.791604
  37 H   1.0000    0     1.008    8.123857    4.671357   -4.969669
  38 H   1.0000    0     1.008    4.699687   -5.650218    0.687795
  39 H   1.0000    0     1.008    4.129969   -6.057243    4.970476
  40 H   1.0000    0     1.008   -0.077535   -4.272121    3.593252
  41 H   1.0000    0     1.008   -0.994261   -8.151288    1.366586
  42 H   1.0000    0     1.008    0.265500   -4.920616   -2.157608
  43 H   1.0000    0     1.008   -3.912484   -4.278744    1.040859

      -----------------------------------------------------------      
     |                   =====================                   |     
     |                           x T B                           |     
     |                   =====================                   |     
     |                         S. Grimme                         |     
     |          Mulliken Center for Theoretical Chemistry        |     
     |                    University of Bonn                     |     
      -----------------------------------------------------------      

   * xtb version 6.5.1 (579679a) compiled by 'ehlert@majestix' on 2022-07-11

   xtb is free software: you can redistribute it and/or modify it under
   the terms of the GNU Lesser General Public License as published by
   the Free Software Foundation, either version 3 of the License, or
   (at your option) any later version.
   
   xtb is distributed in the hope that it will be useful,
   but WITHOUT ANY WARRANTY; without even the implied warranty of
   MERCHANTABILITY or FITNESS FOR A PARTICULAR PURPOSE.  See the
   GNU Lesser General Public License for more details.
   
   Cite this work as:
   * C. Bannwarth, E. Caldeweyher, S. Ehlert, A. Hansen, P. Pracht,
     J. Seibert, S. Spicher, S. Grimme, WIREs Comput. Mol. Sci., 2020, 11,
     e01493. DOI: 10.1002/wcms.1493
   
   for GFN2-xTB:
   * C. Bannwarth, S. Ehlert and S. Grimme., J. Chem. Theory Comput., 2019,
     15, 1652-1671. DOI: 10.1021/acs.jctc.8b01176
   for GFN1-xTB:
   * S. Grimme, C. Bannwarth, P. Shushkov, J. Chem. Theory Comput., 2017,
     13, 1989-2009. DOI: 10.1021/acs.jctc.7b00118
   for GFN0-xTB:
   * P. Pracht, E. Caldeweyher, S. Ehlert, S. Grimme, ChemRxiv, 2019, preprint.
     DOI: 10.26434/chemrxiv.8326202.v1
   for GFN-FF:
   * S. Spicher and S. Grimme, Angew. Chem. Int. Ed., 2020, 59, 15665-15673.
     DOI: 10.1002/anie.202004239
   
   for ALPB and GBSA implicit solvation:
   * S. Ehlert, M. Stahn, S. Spicher, S. Grimme, J. Chem. Theory Comput.,
     2021, 17, 4250-4261. DOI: 10.1021/acs.jctc.1c00471
   
   for DFT-D4:
   * E. Caldeweyher, C. Bannwarth and S. Grimme, J. Chem. Phys., 2017,
     147, 034112. DOI: 10.1063/1.4993215
   * E. Caldeweyher, S. Ehlert, A. Hansen, H. Neugebauer, S. Spicher,
     C. Bannwarth and S. Grimme, J. Chem. Phys., 2019, 150, 154122.
     DOI: 10.1063/1.5090222
   * E. Caldeweyher, J.-M. Mewes, S. Ehlert and S. Grimme, Phys. Chem. Chem. Phys.
     2020, 22, 8499-8512. DOI: 10.1039/D0CP00502A
   
   for sTDA-xTB:
   * S. Grimme and C. Bannwarth, J. Chem. Phys., 2016, 145, 054103.
     DOI: 10.1063/1.4959605
   
   in the mass-spec context:
   * V. Asgeirsson, C. Bauer and S. Grimme, Chem. Sci., 2017, 8, 4879.
     DOI: 10.1039/c7sc00601b
   * J. Koopman and S. Grimme, ACS Omega 2019, 4, 12, 15120-15133.
     DOI: 10.1021/acsomega.9b02011
   
   for metadynamics refer to:
   * S. Grimme, J. Chem. Theory Comput., 2019, 155, 2847-2862
     DOI: 10.1021/acs.jctc.9b00143
   
   for SPH calculations refer to:
   * S. Spicher and S. Grimme, J. Chem. Theory Comput., 2021, 17, 1701-1714
     DOI: 10.1021/acs.jctc.0c01306
   
   with help from (in alphabetical order)
   P. Atkinson, C. Bannwarth, F. Bohle, G. Brandenburg, E. Caldeweyher
   M. Checinski, S. Dohm, S. Ehlert, S. Ehrlich, I. Gerasimov, C. Hölzer
   A. Katbashev, J. Koopman, C. Lavigne, S. Lehtola, F. März, M. Müller,
   F. Musil, H. Neugebauer, J. Pisarek, C. Plett, P. Pracht, F. Pultar,
   J. Seibert, P. Shushkov, S. Spicher, M. Stahn, M. Steiner, T. Strunk,
   J. Stückrath, T. Rose, and J. Unsleber
   
 * started run on 2023/12/06 at 20:44:49.749     

           -------------------------------------------------
          |                Calculation Setup                |
           -------------------------------------------------

          program call               : otool_xtb /tmp/19_XTB.xyz --grad -c 0 -u 0 -P 1 --namespace /tmp/19 --input /tmp/19_XTB.input.tmp --acc 1.000000
          calculation namespace      : /tmp/19
          coordinate file            : /tmp/19_XTB.xyz
          omp threads                :                     1

   ID    Z sym.   atoms
    1    8 O      1, 4, 6, 8-10, 12, 13, 16, 18-20, 22, 24, 26
    2    6 C      2, 3, 5, 11, 14, 15, 21, 23, 25
    3   15 P      7, 17
    4    1 H      27-44

           -------------------------------------------------
          |                 G F N 2 - x T B                 |
           -------------------------------------------------

        Reference                      10.1021/acs.jctc.8b01176
      * Hamiltonian:
        H0-scaling (s, p, d)           1.850000    2.230000    2.230000
        zeta-weighting                 0.500000
      * Dispersion:
        s8                             2.700000
        a1                             0.520000
        a2                             5.000000
        s9                             5.000000
      * Repulsion:
        kExp                           1.500000    1.000000
        rExp                           1.000000
      * Coulomb:
        alpha                          2.000000
        third order                    shell-resolved
        anisotropic                    true
        a3                             3.000000
        a5                             4.000000
        cn-shift                       1.200000
        cn-exp                         4.000000
        max-rad                        5.000000

q/qsh data taken from xtbrestart
CAMM data taken from xtbrestart

          ...................................................
          :                      SETUP                      :
          :.................................................:
          :  # basis functions                 134          :
          :  # atomic orbitals                 132          :
          :  # shells                           72          :
          :  # electrons                       154          :
          :  max. iterations                   250          :
          :  Hamiltonian                  GFN2-xTB          :
          :  restarted?                       true          :
          :  GBSA solvation                  false          :
          :  PC potential                    false          :
          :  electronic temp.          300.0000000     K    :
          :  accuracy                    1.0000000          :
          :  -> integral cutoff          0.2500000E+02      :
          :  -> integral neglect         0.1000000E-07      :
          :  -> SCF convergence          0.1000000E-05 Eh   :
          :  -> wf. convergence          0.1000000E-03 e    :
          :  Broyden damping             0.4000000          :
          ...................................................

 iter      E             dE          RMSdq      gap      omega  full diag
   1    -95.3927538 -0.953928E+02  0.397E-01    3.38       0.0  T
   2    -95.3928832 -0.129465E-03  0.244E-01    3.35       1.0  T
   3    -95.3928662  0.170166E-04  0.458E-02    3.37       1.0  T
   4    -95.3928954 -0.291416E-04  0.154E-02    3.35       1.0  T
[...]
 22:    198.89   0.000210    1.06  0.000330  (-0.003055  0.011122  0.014024)
 23:    211.31   0.000618    3.12  0.000913  (-0.029234  0.006895 -0.003237)
 24:    222.06   0.000989    5.00  0.001390  (-0.009314  0.036038 -0.002173)
 25:    231.34   0.010058   50.83  0.013567  (-0.096077  0.046184 -0.046939)
 26:    235.57   0.003973   20.08  0.005263  ( 0.015271 -0.049350  0.050933)
 27:    240.39   0.000468    2.36  0.000608  (-0.012186 -0.013191  0.016882)
 28:    254.96   0.006627   33.49  0.008111  (-0.031164  0.060484 -0.059002)
 29:    276.05   0.002303   11.64  0.002603  ( 0.044236 -0.000793 -0.025413)
 30:    285.84   0.023402  118.26  0.025549  (-0.071330 -0.142114 -0.016258)
 31:    292.00   0.005576   28.18  0.005959  (-0.070835  0.013100 -0.027744)
 32:    302.71   0.014142   71.47  0.014579  (-0.105088  0.014371 -0.057695)
 33:    318.70   0.007816   39.50  0.007653  (-0.058461 -0.053421 -0.037170)
 34:    327.20   0.004073   20.58  0.003884  ( 0.052514  0.012887 -0.030992)
 35:    344.75   0.001402    7.08  0.001269  ( 0.019589  0.007935  0.028676)
 36:    349.33   0.008970   45.33  0.008013  (-0.065657  0.009755 -0.060058)
 37:    356.12   0.006638   33.54  0.005817  (-0.054746  0.052202  0.009725)
 38:    365.49   0.006208   31.37  0.005301  ( 0.066345  0.025473  0.015821)
 39:    369.40   0.005919   29.91  0.005000  (-0.047910 -0.052010  0.000124)
 40:    372.14   0.013123   66.32  0.011004  ( 0.008357  0.050729 -0.091439)
 41:    386.01   0.015941   80.56  0.012887  (-0.042216 -0.097101 -0.040943)
 42:    403.09   0.024235  122.47  0.018762  ( 0.092691 -0.099436 -0.016827)
 43:    407.22   0.019906  100.60  0.015254  ( 0.052643  0.034208 -0.106362)
 44:    415.76   0.029187  147.50  0.021908  ( 0.064493  0.098222  0.090005)
 45:    421.37   0.011902   60.15  0.008815  ( 0.032342  0.048950 -0.073298)
 46:    425.59   0.010865   54.91  0.007967  ( 0.018909  0.029221 -0.082191)
 47:    439.39   0.022902  115.74  0.016265  (-0.036315  0.047872  0.112494)
 48:    459.74   0.026838  135.63  0.018217  (-0.111781  0.044430 -0.061222)
 49:    462.45   0.013033   65.86  0.008794  (-0.065693  0.013582 -0.065532)
 50:    480.45   0.006265   31.66  0.004069  ( 0.034887  0.036998  0.038513)
 51:    491.42   0.002727   13.78  0.001732  ( 0.040401 -0.009975 -0.000508)
 52:    505.12   0.002863   14.47  0.001769  (-0.037296  0.019359  0.001715)
 53:    514.16   0.028599  144.53  0.017358  ( 0.123116 -0.043384  0.017836)
 54:    537.45   0.008535   43.13  0.004956  ( 0.067344  0.009457 -0.018198)
 55:    563.69   0.008254   41.71  0.004570  ( 0.047393 -0.015509  0.045640)
 56:    589.58   0.035498  179.39  0.018789  (-0.067216  0.106679 -0.053765)
 57:    602.74   0.002764   13.97  0.001431  (-0.014810  0.018102 -0.029733)
 58:    621.65   0.009132   46.15  0.004584  ( 0.066164 -0.007387  0.012328)
 59:    668.90   0.014617   73.87  0.006819  ( 0.019784  0.068548 -0.041581)
 60:    723.66   0.024874  125.70  0.010726  (-0.065885  0.077085 -0.021061)
 61:    732.22   0.045314  229.00  0.019312  ( 0.078843  0.066792  0.092924)
 62:    782.42   0.016059   81.15  0.006405  (-0.070490  0.035474 -0.013329)
 63:    814.93   0.008431   42.61  0.003229  (-0.019202 -0.052996 -0.007170)
 64:    823.51   0.028994  146.52  0.010987  ( 0.015317 -0.088590 -0.053892)
 65:    830.53   0.027899  140.99  0.010483  (-0.086768  0.050882 -0.019112)
 66:    864.88   0.034533  174.51  0.012460  (-0.063859 -0.068842  0.060355)
 67:    867.71   0.029489  149.02  0.010605  ( 0.072224 -0.002949 -0.073350)
 68:    874.13   0.045819  231.55  0.016357  ( 0.035460  0.084262 -0.089443)
 69:    887.76   0.034650  175.11  0.012180  ( 0.079501  0.065778 -0.039154)
 70:    897.10   0.024329  122.95  0.008463  (-0.089375 -0.017108 -0.013515)
 71:    900.08   0.014935   75.47  0.005178  (-0.044881 -0.039587 -0.039956)
 72:    920.98   0.000855    4.32  0.000290  (-0.016900 -0.001515  0.001328)
 73:    949.33   0.030693  155.11  0.010089  ( 0.088173 -0.009632 -0.047139)
 74:    951.71   0.141294  714.04  0.046330  (-0.083548  0.198132  0.009640)
 75:    953.44   0.029104  147.08  0.009526  ( 0.051103 -0.080585 -0.020507)
 76:    994.49   0.003756   18.98  0.001179  ( 0.011032  0.022837 -0.023141)
 77:   1018.29   0.006446   32.57  0.001975  ( 0.031897  0.010951 -0.028949)
 78:   1042.85   0.012317   62.24  0.003686  ( 0.017887 -0.025998  0.051863)
 79:   1053.90   0.016634   84.06  0.004925  (-0.035697  0.029936  0.052488)
 80:   1058.22   0.031156  157.45  0.009188  ( 0.092625  0.002479  0.024536)
 81:   1070.94   0.008532   43.11  0.002486  ( 0.040842 -0.012193  0.025871)
 82:   1088.00   0.023234  117.42  0.006664  ( 0.037135 -0.065930  0.030633)
 83:   1090.13   0.011619   58.72  0.003326  (-0.037804  0.034277  0.026868)
 84:   1092.18   0.003051   15.42  0.000872  ( 0.017399 -0.023192 -0.005589)
 85:   1102.76   0.009997   50.52  0.002829  ( 0.006027 -0.052569  0.005395)
 86:   1115.39   0.027572  139.34  0.007714  ( 0.072615 -0.038566 -0.030886)
 87:   1121.47   0.002877   14.54  0.000801  (-0.016884 -0.022669  0.001233)
 88:   1136.65   0.012720   64.28  0.003492  ( 0.011890  0.032636  0.047810)
 89:   1145.94   0.008488   42.89  0.002311  ( 0.012712  0.045186 -0.010397)
 90:   1157.76   0.010145   51.27  0.002735  (-0.045358  0.012865  0.022620)
 91:   1173.60   0.006703   33.87  0.001782  ( 0.005254 -0.030346  0.028874)
 92:   1197.64   0.002005   10.13  0.000523  ( 0.020824 -0.007117  0.006182)
 93:   1220.21   0.011350   57.36  0.002903  (-0.035928 -0.036278  0.017195)
 94:   1237.80   0.003767   19.04  0.000950  (-0.008120  0.009215 -0.028264)
 95:   1238.96   0.002583   13.05  0.000651  (-0.007740  0.001504 -0.024256)
 96:   1248.43   0.007779   39.31  0.001945  (-0.040290 -0.017881  0.001202)
 97:   1254.30   0.031129  157.31  0.007745  (-0.047604  0.070360 -0.022980)
 98:   1263.27   0.058534  295.81  0.014460  ( 0.030588 -0.074041 -0.089677)
 99:   1266.52   0.061962  313.13  0.015267  ( 0.070736  0.021401  0.099023)
100:   1276.09   0.030354  153.39  0.007423  (-0.059710  0.048543 -0.038744)
101:   1277.10   0.021186  107.07  0.005177  ( 0.044923 -0.029262  0.047985)
102:   1286.84   0.027989  141.45  0.006787  (-0.048380  0.053404  0.039936)
103:   1299.20   0.001284    6.49  0.000308  ( 0.005716 -0.004518  0.015977)
104:   1304.72   0.030723  155.26  0.007348  ( 0.037154  0.042897  0.064247)
105:   1311.98   0.002812   14.21  0.000669  (-0.016764  0.017955  0.008094)
106:   1320.11   0.007623   38.52  0.001802  ( 0.022849  0.032897  0.014061)
107:   1332.86   0.005150   26.03  0.001206  (-0.001952 -0.022936  0.025999)
108:   1341.47   0.004070   20.57  0.000947  ( 0.017272  0.023974 -0.008581)
109:   1343.62   0.003070   15.51  0.000713  ( 0.025159 -0.003082  0.008396)
110:   1353.36   0.002722   13.76  0.000628  (-0.012846  0.018651 -0.010714)
111:   1425.15   0.000046    0.23  0.000010  (-0.002335  0.001047  0.001857)
112:   1447.30   0.003137   15.85  0.000676  ( 0.005186 -0.019458 -0.016457)
113:   1744.10   0.066360  335.36  0.011874  ( 0.103191 -0.019245 -0.029239)
114:   2843.34   0.005615   28.38  0.000616  (-0.007689 -0.006914 -0.022569)
115:   2857.33   0.018084   91.39  0.001975  (-0.020617 -0.023443 -0.031630)
116:   2871.36   0.009375   47.38  0.001019  ( 0.005689  0.018024  0.025722)
117:   2952.43   0.007683   38.83  0.000812  (-0.017171  0.015073  0.017030)
118:   2956.01   0.000315    1.59  0.000033  (-0.002324  0.005130 -0.001260)
119:   2958.27   0.007405   37.42  0.000781  ( 0.004096 -0.007894 -0.026497)
120:   2969.41   0.011240   56.80  0.001181  ( 0.000451 -0.028411 -0.019336)
121:   2971.50   0.011019   55.69  0.001157  ( 0.022211  0.008236  0.024414)
122:   2981.37   0.002639   13.34  0.000276  (-0.010475  0.001302 -0.012836)
123:   3398.66   0.011838   59.83  0.001087  ( 0.006637  0.020249  0.025158)
124:   3442.65   0.011612   58.68  0.001053  (-0.023511 -0.021683 -0.005449)
125:   3449.53   0.005405   27.32  0.000489  ( 0.010860 -0.018091  0.006614)
126:   3494.16   0.011686   59.06  0.001044  (-0.003003 -0.032005 -0.003217)
127:   3497.05   0.028281  142.92  0.002524  ( 0.000860  0.050228 -0.000411)
128:   3522.93   0.005793   29.28  0.000513  (-0.022332  0.003473 -0.001556)
129:   3548.65   0.013286   67.14  0.001168  (-0.017904 -0.024665  0.015475)
130:   3620.98   0.019529   98.69  0.001683  (-0.039551 -0.010888  0.000525)
131:   3625.94   0.015077   76.19  0.001298  (-0.000006 -0.013603  0.033355)

* The epsilon (eps) is given for a Dirac delta lineshape.
** The dipole moment derivative (T) already includes vibrational overlap.

The first frequency considered to be a vibration is 6
The total number of vibrations considered is 126


--------------------------
THERMOCHEMISTRY AT 298.15K
--------------------------

Temperature         ... 298.15 K
Pressure            ... 1.00 atm
Total Mass          ... 428.18 AMU

Throughout the following assumptions are being made:
  (1) The electronic state is orbitally nondegenerate
  (2) There are no thermally accessible electronically excited states
  (3) Hindered rotations indicated by low frequency modes are not
      treated as such but are treated as vibrations and this may
      cause some error
  (4) All equations used are the standard statistical mechanics
      equations for an ideal gas
  (5) All vibrations are strictly harmonic

freq.       7.28  E(vib)   ...       0.58 
freq.      28.36  E(vib)   ...       0.55 
freq.      35.01  E(vib)   ...       0.54 
freq.      50.38  E(vib)   ...       0.52 
freq.      54.15  E(vib)   ...       0.52 
freq.      63.84  E(vib)   ...       0.51 
freq.      75.90  E(vib)   ...       0.49 
freq.      83.93  E(vib)   ...       0.48 
freq.      90.72  E(vib)   ...       0.47 
freq.     100.14  E(vib)   ...       0.46 
freq.     114.45  E(vib)   ...       0.44 
freq.     125.46  E(vib)   ...       0.43 
freq.     148.27  E(vib)   ...       0.41 
freq.     156.80  E(vib)   ...       0.40 
freq.     178.89  E(vib)   ...       0.37 
freq.     190.63  E(vib)   ...       0.36 
freq.     198.89  E(vib)   ...       0.35 
freq.     211.31  E(vib)   ...       0.34 
freq.     222.06  E(vib)   ...       0.33 
freq.     231.34  E(vib)   ...       0.32 
freq.     235.57  E(vib)   ...       0.32 
freq.     240.39  E(vib)   ...       0.31 
freq.     254.96  E(vib)   ...       0.30 
freq.     276.05  E(vib)   ...       0.28 
freq.     285.84  E(vib)   ...       0.27 
freq.     292.00  E(vib)   ...       0.27 
freq.     302.71  E(vib)   ...       0.26 
freq.     318.70  E(vib)   ...       0.25 
freq.     327.20  E(vib)   ...       0.24 
freq.     344.75  E(vib)   ...       0.23 
freq.     349.33  E(vib)   ...       0.23 
freq.     356.12  E(vib)   ...       0.22 
freq.     365.49  E(vib)   ...       0.22 
freq.     369.40  E(vib)   ...       0.21 
freq.     372.14  E(vib)   ...       0.21 
freq.     386.01  E(vib)   ...       0.20 
freq.     403.09  E(vib)   ...       0.19 
freq.     407.22  E(vib)   ...       0.19 
freq.     415.76  E(vib)   ...       0.18 
freq.     421.37  E(vib)   ...       0.18 
freq.     425.59  E(vib)   ...       0.18 
freq.     439.39  E(vib)   ...       0.17 
freq.     459.74  E(vib)   ...       0.16 
freq.     462.45  E(vib)   ...       0.16 
freq.     480.45  E(vib)   ...       0.15 
freq.     491.42  E(vib)   ...       0.14 
freq.     505.12  E(vib)   ...       0.14 
freq.     514.16  E(vib)   ...       0.13 
freq.     537.45  E(vib)   ...       0.12 
freq.     563.69  E(vib)   ...       0.11 
freq.     589.58  E(vib)   ...       0.10 
freq.     602.74  E(vib)   ...       0.10 
freq.     621.65  E(vib)   ...       0.09 
freq.     668.90  E(vib)   ...       0.08 
freq.     723.66  E(vib)   ...       0.06 
freq.     732.22  E(vib)   ...       0.06 
freq.     782.42  E(vib)   ...       0.05 
freq.     814.93  E(vib)   ...       0.05 
freq.     823.51  E(vib)   ...       0.05 
freq.     830.53  E(vib)   ...       0.04 
freq.     864.88  E(vib)   ...       0.04 
freq.     867.71  E(vib)   ...       0.04 
freq.     874.13  E(vib)   ...       0.04 
freq.     887.76  E(vib)   ...       0.04 
freq.     897.10  E(vib)   ...       0.03 
freq.     900.08  E(vib)   ...       0.03 
freq.     920.98  E(vib)   ...       0.03 
freq.     949.33  E(vib)   ...       0.03 
freq.     951.71  E(vib)   ...       0.03 
freq.     953.44  E(vib)   ...       0.03 
freq.     994.49  E(vib)   ...       0.02 
freq.    1018.29  E(vib)   ...       0.02 
freq.    1042.85  E(vib)   ...       0.02 
freq.    1053.90  E(vib)   ...       0.02 
freq.    1058.22  E(vib)   ...       0.02 
freq.    1070.94  E(vib)   ...       0.02 
freq.    1088.00  E(vib)   ...       0.02 
freq.    1090.13  E(vib)   ...       0.02 
freq.    1092.18  E(vib)   ...       0.02 
freq.    1102.76  E(vib)   ...       0.02 
freq.    1115.39  E(vib)   ...       0.01 
freq.    1121.47  E(vib)   ...       0.01 
freq.    1136.65  E(vib)   ...       0.01 
freq.    1145.94  E(vib)   ...       0.01 
freq.    1157.76  E(vib)   ...       0.01 
freq.    1173.60  E(vib)   ...       0.01 
freq.    1197.64  E(vib)   ...       0.01 
freq.    1220.21  E(vib)   ...       0.01 
freq.    1237.80  E(vib)   ...       0.01 
freq.    1238.96  E(vib)   ...       0.01 
freq.    1248.43  E(vib)   ...       0.01 
freq.    1254.30  E(vib)   ...       0.01 
freq.    1263.27  E(vib)   ...       0.01 
freq.    1266.52  E(vib)   ...       0.01 
freq.    1276.09  E(vib)   ...       0.01 
freq.    1277.10  E(vib)   ...       0.01 
freq.    1286.84  E(vib)   ...       0.01 
freq.    1299.20  E(vib)   ...       0.01 
freq.    1304.72  E(vib)   ...       0.01 
freq.    1311.98  E(vib)   ...       0.01 
freq.    1320.11  E(vib)   ...       0.01 
freq.    1332.86  E(vib)   ...       0.01 
freq.    1341.47  E(vib)   ...       0.01 
freq.    1343.62  E(vib)   ...       0.01 
freq.    1353.36  E(vib)   ...       0.01 
freq.    1425.15  E(vib)   ...       0.00 
freq.    1447.30  E(vib)   ...       0.00 
freq.    1744.10  E(vib)   ...       0.00 
freq.    2843.34  E(vib)   ...       0.00 
freq.    2857.33  E(vib)   ...       0.00 
freq.    2871.36  E(vib)   ...       0.00 
freq.    2952.43  E(vib)   ...       0.00 
freq.    2956.01  E(vib)   ...       0.00 
freq.    2958.27  E(vib)   ...       0.00 
freq.    2969.41  E(vib)   ...       0.00 
freq.    2971.50  E(vib)   ...       0.00 
freq.    2981.37  E(vib)   ...       0.00 
freq.    3398.66  E(vib)   ...       0.00 
freq.    3442.65  E(vib)   ...       0.00 
freq.    3449.53  E(vib)   ...       0.00 
freq.    3494.16  E(vib)   ...       0.00 
freq.    3497.05  E(vib)   ...       0.00 
freq.    3522.93  E(vib)   ...       0.00 
freq.    3548.65  E(vib)   ...       0.00 
freq.    3620.98  E(vib)   ...       0.00 
freq.    3625.94  E(vib)   ...       0.00 

------------
INNER ENERGY
------------

The inner energy is: U= E(el) + E(ZPE) + E(vib) + E(rot) + E(trans)
    E(el)   - is the total energy from the electronic structure calculation
              = E(kin-el) + E(nuc-el) + E(el-el) + E(nuc-nuc)
    E(ZPE)  - the the zero temperature vibrational energy from the frequency calculation
    E(vib)  - the the finite temperature correction to E(ZPE) due to population
              of excited vibrational states
    E(rot)  - is the rotational thermal energy
    E(trans)- is the translational thermal energy

Summary of contributions to the inner energy U:
Electronic energy                ...    -94.79879407 Eh
Zero point energy                ...      0.30674117 Eh     192.48 kcal/mol
Thermal vibrational correction   ...      0.02644325 Eh      16.59 kcal/mol
Thermal rotational correction    ...      0.00141627 Eh       0.89 kcal/mol
Thermal translational correction ...      0.00141627 Eh       0.89 kcal/mol
-----------------------------------------------------------------------
Total thermal energy                    -94.46277711 Eh


Summary of corrections to the electronic energy:
(perhaps to be used in another calculation)
Total thermal correction                  0.02927579 Eh      18.37 kcal/mol
Non-thermal (ZPE) correction              0.30674117 Eh     192.48 kcal/mol
-----------------------------------------------------------------------
Total correction                          0.33601696 Eh     210.85 kcal/mol


--------
ENTHALPY
--------

The enthalpy is H = U + kB*T
                kB is Boltzmann's constant
Total free energy                 ...    -94.46277711 Eh 
Thermal Enthalpy correction       ...      0.00094421 Eh       0.59 kcal/mol
-----------------------------------------------------------------------
Total Enthalpy                    ...    -94.46183290 Eh


Note: Only C1 symmetry has been detected, increase convergence thresholds 
      if your molecule has a higher symmetry. Symmetry factor of 1.0 is   
      used for the rotational entropy correction. 
 

Note: Rotational entropy computed according to Herzberg 
Infrared and Raman Spectra, Chapter V,1, Van Nostrand Reinhold, 1945 
Point Group:  C1, Symmetry Number:   1  
Rotational constants in cm-1:     0.008329     0.004622     0.003275 

Vibrational entropy computed according to the QRRHO of S. Grimme
Chem.Eur.J. 2012 18 9955


-------
ENTROPY
-------

The entropy contributions are T*S = T*(S(el)+S(vib)+S(rot)+S(trans))
     S(el)   - electronic entropy
     S(vib)  - vibrational entropy
     S(rot)  - rotational entropy
     S(trans)- translational entropy
The entropies will be listed as multiplied by the temperature to get
units of energy

Electronic entropy                ...      0.00000000 Eh      0.00 kcal/mol
Vibrational entropy               ...      0.04714094 Eh     29.58 kcal/mol
Rotational entropy                ...      0.01701050 Eh     10.67 kcal/mol
Translational entropy             ...      0.02093102 Eh     13.13 kcal/mol
-----------------------------------------------------------------------
Final entropy term                ...      0.08508245 Eh     53.39 kcal/mol

In case the symmetry of your molecule has not been determined correctly
or in case you have a reason to use a different symmetry number we print 
out the resulting rotational entropy values for sn=1,12 :
 --------------------------------------------------------
|  sn= 1 | S(rot)=       0.01701050 Eh     10.67 kcal/mol|
|  sn= 2 | S(rot)=       0.01635604 Eh     10.26 kcal/mol|
|  sn= 3 | S(rot)=       0.01597321 Eh     10.02 kcal/mol|
|  sn= 4 | S(rot)=       0.01570158 Eh      9.85 kcal/mol|
|  sn= 5 | S(rot)=       0.01549090 Eh      9.72 kcal/mol|
|  sn= 6 | S(rot)=       0.01531875 Eh      9.61 kcal/mol|
|  sn= 7 | S(rot)=       0.01517320 Eh      9.52 kcal/mol|
|  sn= 8 | S(rot)=       0.01504713 Eh      9.44 kcal/mol|
|  sn= 9 | S(rot)=       0.01493592 Eh      9.37 kcal/mol|
|  sn=10 | S(rot)=       0.01483644 Eh      9.31 kcal/mol|
|  sn=11 | S(rot)=       0.01474645 Eh      9.25 kcal/mol|
|  sn=12 | S(rot)=       0.01466429 Eh      9.20 kcal/mol|
 --------------------------------------------------------


-------------------
GIBBS FREE ENERGY
-------------------

The Gibbs free energy is G = H - T*S

Total enthalpy                    ...    -94.46183290 Eh 
Total entropy correction          ...     -0.08508245 Eh    -53.39 kcal/mol
-----------------------------------------------------------------------
Final Gibbs free energy         ...    -94.54691535 Eh

For completeness - the Gibbs free energy minus the electronic energy
G-E(el)                           ...      0.25187872 Eh    158.06 kcal/mol



Timings for individual modules:

Sum of individual times         ...      665.849 sec (=  11.097 min)
Geometry relaxation             ...        3.925 sec (=   0.065 min)   0.6 %
Numerical frequency calculation ...      658.645 sec (=  10.977 min)  98.9 %
XTB module                      ...        3.279 sec (=   0.055 min)   0.5 %
                             ****ORCA TERMINATED NORMALLY****
TOTAL RUN TIME: 0 days 0 hours 11 minutes 8 seconds 748 msec
