
                                 *****************
                                 * O   R   C   A *
                                 *****************

                                            #,                                       
                                            ###                                      
                                            ####                                     
                                            #####                                    
                                            ######                                   
                                           ########,                                 
                                     ,,################,,,,,                         
                               ,,#################################,,                 
                          ,,##########################################,,             
                       ,#########################################, ''#####,          
                    ,#############################################,,   '####,        
                  ,##################################################,,,,####,       
                ,###########''''           ''''###############################       
              ,#####''   ,,,,##########,,,,          '''####'''          '####       
            ,##' ,,,,###########################,,,                        '##       
           ' ,,###''''                  '''############,,,                           
         ,,##''                                '''############,,,,        ,,,,,,###''
      ,#''                                            '''#######################'''  
     '                                                          ''''####''''         
             ,#######,   #######,   ,#######,      ##                                
            ,#'     '#,  ##    ##  ,#'     '#,    #''#        ######   ,####,        
            ##       ##  ##   ,#'  ##            #'  '#       #        #'  '#        
            ##       ##  #######   ##           ,######,      #####,   #    #        
            '#,     ,#'  ##    ##  '#,     ,#' ,#      #,         ##   #,  ,#        
             '#######'   ##     ##  '#######'  #'      '#     #####' # '####'        



                  #######################################################
                  #                        -***-                        #
                  #          Department of theory and spectroscopy      #
                  #    Directorship and core code : Frank Neese         #
                  #        Max Planck Institute fuer Kohlenforschung    #
                  #                Kaiser Wilhelm Platz 1               #
                  #                 D-45470 Muelheim/Ruhr               #
                  #                      Germany                        #
                  #                                                     #
                  #                  All rights reserved                #
                  #                        -***-                        #
                  #######################################################


                         Program Version 5.0.3 -  RELEASE  -


 With contributions from (in alphabetic order):
   Daniel Aravena         : Magnetic Suceptibility
   Michael Atanasov       : Ab Initio Ligand Field Theory (pilot matlab implementation)
   Alexander A. Auer      : GIAO ZORA, VPT2 properties, NMR spectrum
   Ute Becker             : Parallelization
   Giovanni Bistoni       : ED, misc. LED, open-shell LED, HFLD
   Martin Brehm           : Molecular dynamics
   Dmytro Bykov           : SCF Hessian
   Vijay G. Chilkuri      : MRCI spin determinant printing, contributions to CSF-ICE
   Dipayan Datta          : RHF DLPNO-CCSD density
   Achintya Kumar Dutta   : EOM-CC, STEOM-CC
   Dmitry Ganyushin       : Spin-Orbit,Spin-Spin,Magnetic field MRCI
   Miquel Garcia          : C-PCM and meta-GGA Hessian, CC/C-PCM, Gaussian charge scheme
   Yang Guo               : DLPNO-NEVPT2, F12-NEVPT2, CIM, IAO-localization
   Andreas Hansen         : Spin unrestricted coupled pair/coupled cluster methods
   Benjamin Helmich-Paris : MC-RPA, TRAH-SCF, COSX integrals
   Lee Huntington         : MR-EOM, pCC
   Robert Izsak           : Overlap fitted RIJCOSX, COSX-SCS-MP3, EOM
   Marcus Kettner         : VPT2
   Christian Kollmar      : KDIIS, OOCD, Brueckner-CCSD(T), CCSD density, CASPT2, CASPT2-K
   Simone Kossmann        : Meta GGA functionals, TD-DFT gradient, OOMP2, MP2 Hessian
   Martin Krupicka        : Initial AUTO-CI
   Lucas Lang             : DCDCAS
   Marvin Lechner         : AUTO-CI (C++ implementation), FIC-MRCC
   Dagmar Lenk            : GEPOL surface, SMD
   Dimitrios Liakos       : Extrapolation schemes; Compound Job, initial MDCI parallelization
   Dimitrios Manganas     : Further ROCIS development; embedding schemes
   Dimitrios Pantazis     : SARC Basis sets
   Anastasios Papadopoulos: AUTO-CI, single reference methods and gradients
   Taras Petrenko         : DFT Hessian,TD-DFT gradient, ASA, ECA, R-Raman, ABS, FL, XAS/XES, NRVS
   Peter Pinski           : DLPNO-MP2, DLPNO-MP2 Gradient
   Christoph Reimann      : Effective Core Potentials
   Marius Retegan         : Local ZFS, SOC
   Christoph Riplinger    : Optimizer, TS searches, QM/MM, DLPNO-CCSD(T), (RO)-DLPNO pert. Triples
   Tobias Risthaus        : Range-separated hybrids, TD-DFT gradient, RPA, STAB
   Michael Roemelt        : Original ROCIS implementation
   Masaaki Saitow         : Open-shell DLPNO-CCSD energy and density
   Barbara Sandhoefer     : DKH picture change effects
   Avijit Sen             : IP-ROCIS
   Kantharuban Sivalingam : CASSCF convergence, NEVPT2, FIC-MRCI
   Bernardo de Souza      : ESD, SOC TD-DFT
   Georgi Stoychev        : AutoAux, RI-MP2 NMR, DLPNO-MP2 response
   Willem Van den Heuvel  : Paramagnetic NMR
   Boris Wezisla          : Elementary symmetry handling
   Frank Wennmohs         : Technical directorship


 We gratefully acknowledge several colleagues who have allowed us to
 interface, adapt or use parts of their codes:
   Stefan Grimme, W. Hujo, H. Kruse, P. Pracht,  : VdW corrections, initial TS optimization,
                  C. Bannwarth, S. Ehlert          DFT functionals, gCP, sTDA/sTD-DF
   Ed Valeev, F. Pavosevic, A. Kumar             : LibInt (2-el integral package), F12 methods
   Garnet Chan, S. Sharma, J. Yang, R. Olivares  : DMRG
   Ulf Ekstrom                                   : XCFun DFT Library
   Mihaly Kallay                                 : mrcc  (arbitrary order and MRCC methods)
   Jiri Pittner, Ondrej Demel                    : Mk-CCSD
   Frank Weinhold                                : gennbo (NPA and NBO analysis)
   Christopher J. Cramer and Donald G. Truhlar   : smd solvation model
   Lars Goerigk                                  : TD-DFT with DH, B97 family of functionals
   V. Asgeirsson, H. Jonsson                     : NEB implementation
   FAccTs GmbH                                   : IRC, NEB, NEB-TS, DLPNO-Multilevel, CI-OPT
                                                   MM, QMMM, 2- and 3-layer-ONIOM, Crystal-QMMM,
                                                   LR-CPCM, SF, NACMEs, symmetry and pop. for TD-DFT,
                                                   nearIR, NL-DFT gradient (VV10), updates on ESD,
                                                   ML-optimized integration grids
   S Lehtola, MJT Oliveira, MAL Marques          : LibXC Library
   Liviu Ungur et al                             : ANISO software


 Your calculation uses the libint2 library for the computation of 2-el integrals
 For citations please refer to: http://libint.valeyev.net

 Your ORCA version has been built with support for libXC version: 5.1.0
 For citations please refer to: https://tddft.org/programs/libxc/

 This ORCA versions uses:
   CBLAS   interface :  Fast vector & matrix operations
   LAPACKE interface :  Fast linear algebra routines
   SCALAPACK package :  Parallel linear algebra routines
   Shared memory     :  Shared parallel matrices
   BLAS/LAPACK       :  OpenBLAS 0.3.15  USE64BITINT DYNAMIC_ARCH NO_AFFINITY Haswell SINGLE_THREADED
        Core in use  :  Haswell
   Copyright (c) 2011-2014, The OpenBLAS Project


Your calculation utilizes the semiempirical GFN2-xTB method
Please cite in your paper:
C. Bannwarth, Ehlert S., S. Grimme,  J. Chem. Theory Comput., 15, (2019), 1652.
   

================================================================================

================================================================================
                                        WARNINGS
                       Please study these warnings very carefully!
================================================================================


WARNING: Geometry Optimization
  ===> : Switching off AutoStart
         For restart on a previous wavefunction, please use MOREAD

WARNING: Found dipole moment calculation with XTB calculation
  ===> : Switching off dipole moment calculation


WARNING: TRAH-SCF for XTB is not implemented!
  ===> : Turning TRAH off!

================================================================================
                                       INPUT FILE
================================================================================
NAME = /tmp/20.inp
|  1> ! XTB2 opt numfreq
|  2> * XYZ 0 1
|  3> O 0.8927 -1.5985 1.1729
|  4> C 1.0583 -1.2399 0.0138
|  5> O 2.0934 -0.4094 -0.2663
|  6> C 2.0542 0.4388 -1.4330
|  7> C 2.8739 1.6898 -1.0809
|  8> O 2.1815 2.4257 -0.0777
|  9> P 2.8244 2.5739 1.3842
| 10> O 1.9653 3.2198 2.4122
| 11> O 3.3091 1.1089 1.7782
| 12> O 4.2091 3.3245 1.1148
| 13> C 0.5991 0.7788 -1.7671
| 14> O 0.4707 1.7026 -2.8523
| 15> C -0.1302 -0.5172 -2.1397
| 16> O -1.5299 -0.2261 -2.2245
| 17> C 0.2136 -1.6921 -1.1917
| 18> O 1.1118 -2.5571 -1.9566
| 19> C -1.0031 -2.5699 -0.7920
| 20> O -0.5070 -3.9218 -0.5495
| 21> C -1.8519 -2.1749 0.4360
| 22> O -2.9249 -3.1476 0.5293
| 23> C -2.4633 -0.7809 0.4072
| 24> O -3.0803 -0.5350 1.6699
| 25> P -2.8970 0.9162 2.3229
| 26> O -3.5478 1.1347 3.6435
| 27> O -1.3222 1.2001 2.3286
| 28> O -3.4189 1.9290 1.2056
| 29> H 2.5525 -0.0810 -2.2622
| 30> H 2.9914 2.3396 -1.9554
| 31> H 3.8753 1.4092 -0.7330
| 32> H 2.5693 0.5494 2.0883
| 33> H 4.6611 3.5345 1.9488
| 34> H 0.0872 1.2263 -0.9037
| 35> H 0.6962 2.5893 -2.5100
| 36> H 0.1552 -0.7934 -3.1638
| 37> H -1.6075 0.4746 -2.9036
| 38> H 1.0111 -3.4379 -1.5294
| 39> H -1.6594 -2.6989 -1.6608
| 40> H -1.2915 -4.4025 -0.2040
| 41> H -1.2974 -2.3269 1.3678
| 42> H -3.4939 -2.8347 1.2600
| 43> H -3.2498 -0.7157 -0.3503
| 44> H -1.7020 -0.0245 0.2168
| 45> H -1.1239 1.9643 2.9171
| 46> H -4.3547 2.1561 1.3551
| 47> *
| 48> 
| 49>                          ****END OF INPUT****
================================================================================

                       *****************************
                       * Geometry Optimization Run *
                       *****************************

Geometry optimization settings:
Update method            Update   .... BFGS
Choice of coordinates    CoordSys .... Z-matrix Internals
Initial Hessian          InHess   .... Almoef's Model

Convergence Tolerances:
Energy Change            TolE     ....  5.0000e-06 Eh
Max. Gradient            TolMAXG  ....  3.0000e-04 Eh/bohr
RMS Gradient             TolRMSG  ....  1.0000e-04 Eh/bohr
Max. Displacement        TolMAXD  ....  4.0000e-03 bohr
RMS Displacement         TolRMSD  ....  2.0000e-03 bohr
Strict Convergence                ....  False
------------------------------------------------------------------------------
                        ORCA OPTIMIZATION COORDINATE SETUP
------------------------------------------------------------------------------

The optimization will be done in new redundant internal coordinates
Making redundant internal coordinates   ...  (new redundants) done
Evaluating the initial hessian          ...  (Almloef) done
Evaluating the coordinates              ...  done
Calculating the B-matrix                .... done
Calculating the G-matrix                .... done
Diagonalizing the G-matrix              .... done
Small eigenvalue found = 3.469e-03
Small eigenvalue found = 5.927e-03
Small eigenvalue found = 1.297e-02
Small eigenvalue found = 1.393e-02
Small eigenvalue found = 2.032e-02
Small eigenvalue found = 2.110e-02
The first mode is                       ....  107
The number of degrees of freedom        ....  126

    -----------------------------------------------------------------
                    Redundant Internal Coordinates


    -----------------------------------------------------------------
         Definition                    Initial Value    Approx d2E/dq
    -----------------------------------------------------------------
      1. B(C   1,O   0)                  1.2246         1.027627   
      2. B(O   2,C   1)                  1.3563         0.633288   
      3. B(C   3,O   2)                  1.4430         0.460640   
      4. B(C   4,C   3)                  1.5365         0.364738   
      5. B(O   5,C   4)                  1.4239         0.494145   
      6. B(P   6,O   5)                  1.6039         0.857305   
      7. B(O   7,P   6)                  1.4873         1.315690   
      8. B(O   8,P   6)                  1.5926         0.893560   
      9. B(O   9,P   6)                  1.5979         0.876264   
     10. B(C  10,C   3)                  1.5312         0.371947   
     11. B(O  11,C  10)                  1.4309         0.481481   
     12. B(C  12,C  10)                  1.5331         0.369376   
     13. B(O  13,C  12)                  1.4322         0.479300   
     14. B(C  14,C  12)                  1.5483         0.349261   
     15. B(C  14,C   1)                  1.5399         0.360258   
     16. B(O  15,C  14)                  1.4629         0.428131   
     17. B(C  16,C  14)                  1.5526         0.343777   
     18. B(O  17,C  16)                  1.4603         0.432188   
     19. B(C  18,C  16)                  1.5442         0.354622   
     20. B(O  19,C  18)                  1.4513         0.446813   
     21. B(C  20,C  18)                  1.5225         0.384071   
     22. B(O  21,C  20)                  1.4267         0.488957   
     23. B(P  22,O  21)                  1.6019         0.863661   
     24. B(O  23,P  22)                  1.4884         1.310432   
     25. B(O  24,P  22)                  1.6002         0.868991   
     26. B(O  25,P  22)                  1.5958         0.883214   
     27. B(H  26,C   3)                  1.0982         0.349400   
     28. B(H  27,C   4)                  1.0958         0.352497   
     29. B(H  28,C   4)                  1.0966         0.351450   
     30. B(H  29,O   8)                  0.9780         0.486666   
     31. B(H  30,O   9)                  0.9716         0.498308   
     32. B(H  31,C  10)                  1.0990         0.348414   
     33. B(H  32,O  11)                  0.9769         0.488728   
     34. B(H  33,C  12)                  1.0984         0.349135   
     35. B(H  34,O  13)                  0.9789         0.485140   
     36. B(H  35,O  15)                  0.9841         0.475905   
     37. B(H  36,C  16)                  1.0964         0.351679   
     38. B(H  37,O  17)                  0.9828         0.478191   
     39. B(H  38,C  18)                  1.0949         0.353664   
     40. B(H  39,O  19)                  0.9775         0.487504   
     41. B(H  40,C  20)                  1.0939         0.354964   
     42. B(H  41,C  20)                  1.0899         0.360178   
     43. B(H  42,O   7)                  3.3726         0.000074   
     44. B(H  42,O  24)                  0.9847         0.474833   
     45. B(H  43,O  25)                  0.9745         0.492988   
     46. A(O   0,C   1,C  14)          125.5090         0.428326   
     47. A(O   0,C   1,O   2)          118.5544         0.471365   
     48. A(O   2,C   1,C  14)          115.8983         0.393111   
     49. A(C   1,O   2,C   3)          120.4091         0.407864   
     50. A(C  10,C   3,H  26)          111.8107         0.322487   
     51. A(O   2,C   3,C  10)          109.4364         0.374025   
     52. A(C   4,C   3,H  26)          108.4409         0.321455   
     53. A(O   2,C   3,C   4)          106.1894         0.372765   
     54. A(C   4,C   3,C  10)          112.0974         0.361599   
     55. A(O   2,C   3,H  26)          108.6591         0.332050   
     56. A(O   5,C   4,H  28)          110.6578         0.336271   
     57. A(C   3,C   4,O   5)          108.8340         0.377310   
     58. A(C   3,C   4,H  27)          110.9238         0.321920   
     59. A(O   5,C   4,H  27)          107.9350         0.336437   
     60. A(H  27,C   4,H  28)          107.8781         0.288765   
     61. A(C   3,C   4,H  28)          110.5807         0.321763   
     62. A(C   4,O   5,P   6)          119.6715         0.465991   
     63. A(O   5,P   6,O   7)          116.0143         0.600265   
     64. A(O   8,P   6,O   9)          102.1266         0.559722   
     65. A(O   7,P   6,O   9)          114.3987         0.602802   
     66. A(O   5,P   6,O   9)          103.7147         0.555330   
     67. A(O   7,P   6,O   8)          113.8464         0.605080   
     68. A(O   5,P   6,O   8)          105.2178         0.557397   
     69. A(P   6,O   8,H  29)          111.9914         0.415860   
     70. A(P   6,O   9,H  30)          111.0974         0.416163   
     71. A(C   3,C  10,H  31)          111.2011         0.322338   
     72. A(C  12,C  10,H  31)          108.2754         0.321971   
     73. A(O  11,C  10,C  12)          108.5876         0.376442   
     74. A(C   3,C  10,O  11)          113.2102         0.376894   
     75. A(C   3,C  10,C  12)          108.5051         0.362380   
     76. A(O  11,C  10,H  31)          106.9261         0.334340   
     77. A(C  10,O  11,H  32)          107.4306         0.350784   
     78. A(C  10,C  12,H  33)          108.3947         0.322081   
     79. A(O  13,C  12,C  14)          114.0482         0.372531   
     80. A(C  10,C  12,C  14)          112.7704         0.358514   
     81. A(C  10,C  12,O  13)          107.9081         0.376147   
     82. A(C  14,C  12,H  33)          108.8050         0.319145   
     83. A(O  13,C  12,H  33)          104.4683         0.334203   
     84. A(C  12,O  13,H  34)          105.3108         0.350079   
     85. A(O  15,C  14,C  16)          106.3470         0.364389   
     86. A(C  12,C  14,C  16)          114.3700         0.354168   
     87. A(C   1,C  14,C  16)          113.2258         0.356035   
     88. A(C  12,C  14,O  15)          105.3599         0.365378   
     89. A(C   1,C  14,O  15)          104.2507         0.367324   
     90. A(C   1,C  14,C  12)          112.2279         0.356993   
     91. A(C  14,O  15,H  35)          103.8524         0.342388   
     92. A(O  17,C  16,H  36)          103.0623         0.328921   
     93. A(C  14,C  16,H  36)          109.3657         0.318699   
     94. A(O  17,C  16,C  18)          106.9469         0.366925   
     95. A(C  14,C  16,C  18)          119.3967         0.355084   
     96. A(C  14,C  16,O  17)          107.4528         0.364978   
     97. A(C  18,C  16,H  36)          109.3424         0.320320   
     98. A(C  16,O  17,H  37)          103.8867         0.343205   
     99. A(C  16,C  18,O  19)          106.6237         0.369026   
    100. A(O  19,C  18,H  38)          103.1015         0.331043   
    101. A(C  20,C  18,H  38)          110.2788         0.324835   
    102. A(O  19,C  18,C  20)          108.5415         0.374128   
    103. A(C  16,C  18,H  38)          111.2779         0.320615   
    104. A(C  16,C  18,C  20)          116.0987         0.361843   
    105. A(C  18,O  19,H  39)          105.3001         0.346247   
    106. A(C  18,C  20,H  41)          110.9917         0.325811   
    107. A(H  40,C  20,H  41)          109.8685         0.290194   
    108. A(O  21,C  20,H  41)          109.6976         0.337054   
    109. A(O  21,C  20,H  40)          106.9571         0.336237   
    110. A(C  18,C  20,H  40)          110.8797         0.325031   
    111. A(C  18,C  20,O  21)          108.3449         0.380005   
    112. A(C  20,O  21,P  22)          117.8680         0.465721   
    113. A(O  24,P  22,O  25)          102.2251         0.557598   
    114. A(O  23,P  22,O  25)          112.6473         0.603255   
    115. A(O  21,P  22,O  25)          104.6039         0.556946   
    116. A(O  23,P  22,O  24)          113.6475         0.601369   
    117. A(O  21,P  22,O  24)          105.9497         0.555230   
    118. A(O  21,P  22,O  23)          116.4014         0.600656   
    119. A(P  22,O  24,H  42)          109.7549         0.411999   
    120. A(P  22,O  25,H  43)          110.7663         0.415953   
    121. D(C   3,O   2,C   1,C  14)     26.1624         0.029518   
    122. D(C   3,O   2,C   1,O   0)   -155.9631         0.029518   
    123. D(C   4,C   3,O   2,C   1)    149.9925         0.016717   
    124. D(H  26,C   3,O   2,C   1)    -93.5394         0.016717   
    125. D(C  10,C   3,O   2,C   1)     28.8054         0.016717   
    126. D(H  28,C   4,C   3,C  10)    173.3608         0.010654   
    127. D(O   5,C   4,C   3,O   2)    -67.8522         0.010654   
    128. D(H  27,C   4,C   3,H  26)     56.9300         0.010654   
    129. D(H  28,C   4,C   3,O   2)     53.8989         0.010654   
    130. D(O   5,C   4,C   3,H  26)    175.5331         0.010654   
    131. D(H  27,C   4,C   3,O   2)    173.5447         0.010654   
    132. D(H  27,C   4,C   3,C  10)    -66.9934         0.010654   
    133. D(O   5,C   4,C   3,C  10)     51.6097         0.010654   
    134. D(H  28,C   4,C   3,H  26)    -62.7159         0.010654   
    135. D(P   6,O   5,C   4,C   3)    114.2786         0.019290   
    136. D(P   6,O   5,C   4,H  28)     -7.4256         0.019290   
    137. D(P   6,O   5,C   4,H  27)   -125.2572         0.019290   
    138. D(O   9,P   6,O   5,C   4)     60.5692         0.012741   
    139. D(O   7,P   6,O   5,C   4)   -173.1140         0.012741   
    140. D(O   8,P   6,O   5,C   4)    -46.3177         0.012741   
    141. D(H  29,O   8,P   6,O   5)    -79.3496         0.013787   
    142. D(H  29,O   8,P   6,O   9)    172.6056         0.013787   
    143. D(H  29,O   8,P   6,O   7)     48.7623         0.013787   
    144. D(H  30,O   9,P   6,O   8)    -75.3470         0.013281   
    145. D(H  30,O   9,P   6,O   7)     48.1248         0.013281   
    146. D(H  30,O   9,P   6,O   5)    175.4572         0.013281   
    147. D(O  11,C  10,C   3,H  26)    -64.0964         0.011052   
    148. D(O  11,C  10,C   3,C   4)     57.9229         0.011052   
    149. D(C  12,C  10,C   3,C   4)    178.5371         0.011052   
    150. D(O  11,C  10,C   3,O   2)    175.4630         0.011052   
    151. D(C  12,C  10,C   3,O   2)    -63.9228         0.011052   
    152. D(H  31,C  10,C   3,H  26)    175.4986         0.011052   
    153. D(H  31,C  10,C   3,C   4)    -62.4821         0.011052   
    154. D(H  31,C  10,C   3,O   2)     55.0580         0.011052   
    155. D(C  12,C  10,C   3,H  26)     56.5178         0.011052   
    156. D(H  32,O  11,C  10,C  12)    163.4457         0.018290   
    157. D(H  32,O  11,C  10,H  31)     46.8197         0.018290   
    158. D(H  32,O  11,C  10,C   3)    -75.9869         0.018290   
    159. D(H  33,C  12,C  10,O  11)     46.2447         0.010909   
    160. D(H  33,C  12,C  10,C   3)    -77.1925         0.010909   
    161. D(C  14,C  12,C  10,H  31)    -77.4682         0.010909   
    162. D(C  14,C  12,C  10,O  11)    166.7760         0.010909   
    163. D(C  14,C  12,C  10,C   3)     43.3389         0.010909   
    164. D(O  13,C  12,C  10,H  31)     49.4084         0.010909   
    165. D(O  13,C  12,C  10,O  11)    -66.3474         0.010909   
    166. D(H  33,C  12,C  10,H  31)    162.0004         0.010909   
    167. D(O  13,C  12,C  10,C   3)    170.2155         0.010909   
    168. D(H  34,O  13,C  12,C  14)   -175.4049         0.018121   
    169. D(H  34,O  13,C  12,C  10)     58.4660         0.018121   
    170. D(H  34,O  13,C  12,H  33)    -56.7398         0.018121   
    171. D(O  15,C  14,C  12,H  33)     15.1487         0.009831   
    172. D(O  15,C  14,C  12,O  13)    131.3147         0.009831   
    173. D(O  15,C  14,C  12,C  10)   -105.1475         0.009831   
    174. D(C   1,C  14,C  12,O  13)   -115.8532         0.009831   
    175. D(C   1,C  14,C  12,C  10)      7.6847         0.009831   
    176. D(C  16,C  14,C   1,O   2)   -176.5242         0.009758   
    177. D(C  16,C  14,C   1,O   0)      5.7693         0.009758   
    178. D(C   1,C  14,C  12,H  33)    127.9808         0.009831   
    179. D(O  15,C  14,C   1,O   2)     68.3258         0.009758   
    180. D(O  15,C  14,C   1,O   0)   -109.3807         0.009758   
    181. D(C  12,C  14,C   1,O   2)    -45.1913         0.009758   
    182. D(C  16,C  14,C  12,C  10)    138.4380         0.009831   
    183. D(C  12,C  14,C   1,O   0)    137.1022         0.009758   
    184. D(C  16,C  14,C  12,H  33)   -101.2659         0.009831   
    185. D(C  16,C  14,C  12,O  13)     14.9001         0.009831   
    186. D(H  35,O  15,C  14,C  16)    -34.7667         0.014439   
    187. D(H  35,O  15,C  14,C  12)   -156.5366         0.014439   
    188. D(H  35,O  15,C  14,C   1)     85.1349         0.014439   
    189. D(H  36,C  16,C  14,O  15)    -76.6070         0.009550   
    190. D(H  36,C  16,C  14,C  12)     39.2361         0.009550   
    191. D(H  36,C  16,C  14,C   1)    169.5002         0.009550   
    192. D(C  18,C  16,C  14,O  15)    156.4526         0.009550   
    193. D(C  18,C  16,C  14,C  12)    -87.7043         0.009550   
    194. D(C  18,C  16,C  14,C   1)     42.5598         0.009550   
    195. D(O  17,C  16,C  14,O  15)     34.5933         0.009550   
    196. D(O  17,C  16,C  14,C  12)    150.4364         0.009550   
    197. D(O  17,C  16,C  14,C   1)    -79.2996         0.009550   
    198. D(H  37,O  17,C  16,H  36)    -70.7977         0.014712   
    199. D(H  37,O  17,C  16,C  18)     44.4254         0.014712   
    200. D(H  37,O  17,C  16,C  14)    173.7491         0.014712   
    201. D(H  38,C  18,C  16,H  36)    163.0299         0.010111   
    202. D(H  38,C  18,C  16,O  17)     52.0913         0.010111   
    203. D(H  38,C  18,C  16,C  14)    -70.0188         0.010111   
    204. D(C  20,C  18,C  16,H  36)    -69.7452         0.010111   
    205. D(C  20,C  18,C  16,O  17)    179.3162         0.010111   
    206. D(C  20,C  18,C  16,C  14)     57.2061         0.010111   
    207. D(O  19,C  18,C  16,H  36)     51.3055         0.010111   
    208. D(O  19,C  18,C  16,O  17)    -59.6331         0.010111   
    209. D(O  19,C  18,C  16,C  14)    178.2568         0.010111   
    210. D(H  39,O  19,C  18,H  38)     67.6835         0.015722   
    211. D(H  39,O  19,C  18,C  20)    -49.2780         0.015722   
    212. D(H  39,O  19,C  18,C  16)   -175.0372         0.015722   
    213. D(H  41,C  20,C  18,H  38)     74.5782         0.011744   
    214. D(H  41,C  20,C  18,O  19)   -173.1617         0.011744   
    215. D(H  41,C  20,C  18,C  16)    -53.1413         0.011744   
    216. D(H  40,C  20,C  18,H  38)   -163.0121         0.011744   
    217. D(H  40,C  20,C  18,O  19)    -50.7519         0.011744   
    218. D(H  40,C  20,C  18,C  16)     69.2685         0.011744   
    219. D(O  21,C  20,C  18,H  38)    -45.9243         0.011744   
    220. D(O  21,C  20,C  18,O  19)     66.3358         0.011744   
    221. D(O  21,C  20,C  18,C  16)   -173.6438         0.011744   
    222. D(P  22,O  21,C  20,H  41)     17.2237         0.018877   
    223. D(P  22,O  21,C  20,H  40)   -101.8906         0.018877   
    224. D(P  22,O  21,C  20,C  18)    138.5278         0.018877   
    225. D(O  25,P  22,O  21,C  20)     55.3246         0.012920   
    226. D(O  24,P  22,O  21,C  20)    -52.2560         0.012920   
    227. D(O  23,P  22,O  21,C  20)   -179.6740         0.012920   
    228. D(H  42,O  24,P  22,O  25)     85.0218         0.013072   
    229. D(H  42,O  24,P  22,O  23)    -36.6452         0.013072   
    230. D(H  42,O  24,P  22,O  21)   -165.6951         0.013072   
    231. D(H  43,O  25,P  22,O  24)   -154.9802         0.013483   
    232. D(H  43,O  25,P  22,O  23)    -32.6291         0.013483   
    233. D(H  43,O  25,P  22,O  21)     94.7153         0.013483   
    -----------------------------------------------------------------

Number of atoms                         .... 44
Number of degrees of freedom            .... 233

         *************************************************************
         *                GEOMETRY OPTIMIZATION CYCLE   1            *
         *************************************************************
---------------------------------
CARTESIAN COORDINATES (ANGSTROEM)
---------------------------------
  O     0.892700   -1.598500    1.172900
  C     1.058300   -1.239900    0.013800
  O     2.093400   -0.409400   -0.266300
  C     2.054200    0.438800   -1.433000
  C     2.873900    1.689800   -1.080900
  O     2.181500    2.425700   -0.077700
  P     2.824400    2.573900    1.384200
  O     1.965300    3.219800    2.412200
  O     3.309100    1.108900    1.778200
  O     4.209100    3.324500    1.114800
  C     0.599100    0.778800   -1.767100
  O     0.470700    1.702600   -2.852300
  C    -0.130200   -0.517200   -2.139700
  O    -1.529900   -0.226100   -2.224500
  C     0.213600   -1.692100   -1.191700
  O     1.111800   -2.557100   -1.956600
  C    -1.003100   -2.569900   -0.792000
  O    -0.507000   -3.921800   -0.549500
  C    -1.851900   -2.174900    0.436000
  O    -2.924900   -3.147600    0.529300
  C    -2.463300   -0.780900    0.407200
  O    -3.080300   -0.535000    1.669900
  P    -2.897000    0.916200    2.322900
  O    -3.547800    1.134700    3.643500
  O    -1.322200    1.200100    2.328600
  O    -3.418900    1.929000    1.205600
  H     2.552500   -0.081000   -2.262200
  H     2.991400    2.339600   -1.955400
  H     3.875300    1.409200   -0.733000
  H     2.569300    0.549400    2.088300
  H     4.661100    3.534500    1.948800
  H     0.087200    1.226300   -0.903700
  H     0.696200    2.589300   -2.510000
  H     0.155200   -0.793400   -3.163800
  H    -1.607500    0.474600   -2.903600
  H     1.011100   -3.437900   -1.529400
  H    -1.659400   -2.698900   -1.660800
  H    -1.291500   -4.402500   -0.204000
  H    -1.297400   -2.326900    1.367800
  H    -3.493900   -2.834700    1.260000
  H    -3.249800   -0.715700   -0.350300
  H    -1.702000   -0.024500    0.216800
  H    -1.123900    1.964300    2.917100
  H    -4.354700    2.156100    1.355100

----------------------------
CARTESIAN COORDINATES (A.U.)
----------------------------
  NO LB    ZA    FRAG    MASS        X           Y           Z
   0 O   8.0000    0    15.999    1.686959   -3.020727    2.216460
   1 C   6.0000    0    12.011    1.999897   -2.343071    0.026078
   2 O   8.0000    0    15.999    3.955953   -0.773654   -0.503234
   3 C   6.0000    0    12.011    3.881875    0.829212   -2.707978
   4 C   6.0000    0    12.011    5.430884    3.193259   -2.042605
   5 O   8.0000    0    15.999    4.122438    4.583909   -0.146832
   6 P  15.0000    0    30.974    5.337342    4.863966    2.615759
   7 O   8.0000    0    15.999    3.713879    6.084540    4.558397
   8 O   8.0000    0    15.999    6.253293    2.095517    3.360311
   9 O   8.0000    0    15.999    7.954046    6.282395    2.106667
  10 C   6.0000    0    12.011    1.132135    1.471719   -3.339335
  11 O   8.0000    0    15.999    0.889494    3.217448   -5.390066
  12 C   6.0000    0    12.011   -0.246042   -0.977366   -4.043447
  13 O   8.0000    0    15.999   -2.891092   -0.427267   -4.203696
  14 C   6.0000    0    12.011    0.403646   -3.197606   -2.251987
  15 O   8.0000    0    15.999    2.100998   -4.832219   -3.697438
  16 C   6.0000    0    12.011   -1.895584   -4.856407   -1.496663
  17 O   8.0000    0    15.999   -0.958091   -7.411128   -1.038405
  18 C   6.0000    0    12.011   -3.499584   -4.109965    0.823921
  19 O   8.0000    0    15.999   -5.527260   -5.948102    1.000232
  20 C   6.0000    0    12.011   -4.654962   -1.475687    0.769496
  21 O   8.0000    0    15.999   -5.820923   -1.011003    3.155654
  22 P  15.0000    0    30.974   -5.474537    1.731367    4.389645
  23 O   8.0000    0    15.999   -6.704370    2.144272    6.885217
  24 O   8.0000    0    15.999   -2.498596    2.267860    4.400416
  25 O   8.0000    0    15.999   -6.460785    3.645282    2.278254
  26 H   1.0000    0     1.008    4.823526   -0.153068   -4.274938
  27 H   1.0000    0     1.008    5.652927    4.421203   -3.695170
  28 H   1.0000    0     1.008    7.323256    2.663002   -1.385169
  29 H   1.0000    0     1.008    4.855273    1.038216    3.946315
  30 H   1.0000    0     1.008    8.808202    6.679237    3.682698
  31 H   1.0000    0     1.008    0.164784    2.317371   -1.707746
  32 H   1.0000    0     1.008    1.315627    4.893068   -4.743213
  33 H   1.0000    0     1.008    0.293285   -1.499309   -5.978716
  34 H   1.0000    0     1.008   -3.037735    0.896864   -5.487009
  35 H   1.0000    0     1.008    1.910702   -6.496689   -2.890147
  36 H   1.0000    0     1.008   -3.135812   -5.100182   -3.138457
  37 H   1.0000    0     1.008   -2.440581   -8.319519   -0.385504
  38 H   1.0000    0     1.008   -2.451731   -4.397204    2.584767
  39 H   1.0000    0     1.008   -6.602514   -5.356807    2.381055
  40 H   1.0000    0     1.008   -6.141232   -1.352477   -0.661971
  41 H   1.0000    0     1.008   -3.216314   -0.046298    0.409693
  42 H   1.0000    0     1.008   -2.123863    3.711989    5.512520
  43 H   1.0000    0     1.008   -8.229190    4.074439    2.560768

      -----------------------------------------------------------      
     |                   =====================                   |     
     |                           x T B                           |     
     |                   =====================                   |     
     |                         S. Grimme                         |     
     |          Mulliken Center for Theoretical Chemistry        |     
     |                    University of Bonn                     |     
      -----------------------------------------------------------      

   * xtb version 6.5.1 (579679a) compiled by 'ehlert@majestix' on 2022-07-11

   xtb is free software: you can redistribute it and/or modify it under
   the terms of the GNU Lesser General Public License as published by
   the Free Software Foundation, either version 3 of the License, or
   (at your option) any later version.
   
   xtb is distributed in the hope that it will be useful,
   but WITHOUT ANY WARRANTY; without even the implied warranty of
   MERCHANTABILITY or FITNESS FOR A PARTICULAR PURPOSE.  See the
   GNU Lesser General Public License for more details.
   
   Cite this work as:
   * C. Bannwarth, E. Caldeweyher, S. Ehlert, A. Hansen, P. Pracht,
     J. Seibert, S. Spicher, S. Grimme, WIREs Comput. Mol. Sci., 2020, 11,
     e01493. DOI: 10.1002/wcms.1493
   
   for GFN2-xTB:
   * C. Bannwarth, S. Ehlert and S. Grimme., J. Chem. Theory Comput., 2019,
     15, 1652-1671. DOI: 10.1021/acs.jctc.8b01176
   for GFN1-xTB:
   * S. Grimme, C. Bannwarth, P. Shushkov, J. Chem. Theory Comput., 2017,
     13, 1989-2009. DOI: 10.1021/acs.jctc.7b00118
   for GFN0-xTB:
   * P. Pracht, E. Caldeweyher, S. Ehlert, S. Grimme, ChemRxiv, 2019, preprint.
     DOI: 10.26434/chemrxiv.8326202.v1
   for GFN-FF:
   * S. Spicher and S. Grimme, Angew. Chem. Int. Ed., 2020, 59, 15665-15673.
     DOI: 10.1002/anie.202004239
   
   for ALPB and GBSA implicit solvation:
   * S. Ehlert, M. Stahn, S. Spicher, S. Grimme, J. Chem. Theory Comput.,
     2021, 17, 4250-4261. DOI: 10.1021/acs.jctc.1c00471
   
   for DFT-D4:
   * E. Caldeweyher, C. Bannwarth and S. Grimme, J. Chem. Phys., 2017,
     147, 034112. DOI: 10.1063/1.4993215
   * E. Caldeweyher, S. Ehlert, A. Hansen, H. Neugebauer, S. Spicher,
     C. Bannwarth and S. Grimme, J. Chem. Phys., 2019, 150, 154122.
     DOI: 10.1063/1.5090222
   * E. Caldeweyher, J.-M. Mewes, S. Ehlert and S. Grimme, Phys. Chem. Chem. Phys.
     2020, 22, 8499-8512. DOI: 10.1039/D0CP00502A
   
   for sTDA-xTB:
   * S. Grimme and C. Bannwarth, J. Chem. Phys., 2016, 145, 054103.
     DOI: 10.1063/1.4959605
   
   in the mass-spec context:
   * V. Asgeirsson, C. Bauer and S. Grimme, Chem. Sci., 2017, 8, 4879.
     DOI: 10.1039/c7sc00601b
   * J. Koopman and S. Grimme, ACS Omega 2019, 4, 12, 15120-15133.
     DOI: 10.1021/acsomega.9b02011
   
   for metadynamics refer to:
   * S. Grimme, J. Chem. Theory Comput., 2019, 155, 2847-2862
     DOI: 10.1021/acs.jctc.9b00143
   
   for SPH calculations refer to:
   * S. Spicher and S. Grimme, J. Chem. Theory Comput., 2021, 17, 1701-1714
     DOI: 10.1021/acs.jctc.0c01306
   
   with help from (in alphabetical order)
   P. Atkinson, C. Bannwarth, F. Bohle, G. Brandenburg, E. Caldeweyher
   M. Checinski, S. Dohm, S. Ehlert, S. Ehrlich, I. Gerasimov, C. Hölzer
   A. Katbashev, J. Koopman, C. Lavigne, S. Lehtola, F. März, M. Müller,
   F. Musil, H. Neugebauer, J. Pisarek, C. Plett, P. Pracht, F. Pultar,
   J. Seibert, P. Shushkov, S. Spicher, M. Stahn, M. Steiner, T. Strunk,
   J. Stückrath, T. Rose, and J. Unsleber
   
 * started run on 2023/12/06 at 20:55:58.199     

           -------------------------------------------------
          |                Calculation Setup                |
           -------------------------------------------------

          program call               : otool_xtb /tmp/20_XTB.xyz --grad -c 0 -u 0 -P 1 --namespace /tmp/20 --input /tmp/20_XTB.input.tmp --acc 1.000000
          calculation namespace      : /tmp/20
          coordinate file            : /tmp/20_XTB.xyz
          omp threads                :                     1

   ID    Z sym.   atoms
    1    8 O      1, 3, 6, 8-10, 12, 14, 16, 18, 20, 22, 24-26
    2    6 C      2, 4, 5, 11, 13, 15, 17, 19, 21
    3   15 P      7, 23
    4    1 H      27-44

           -------------------------------------------------
          |                 G F N 2 - x T B                 |
           -------------------------------------------------

        Reference                      10.1021/acs.jctc.8b01176
      * Hamiltonian:
        H0-scaling (s, p, d)           1.850000    2.230000    2.230000
        zeta-weighting                 0.500000
      * Dispersion:
        s8                             2.700000
        a1                             0.520000
        a2                             5.000000
        s9                             5.000000
      * Repulsion:
        kExp                           1.500000    1.000000
        rExp                           1.000000
      * Coulomb:
        alpha                          2.000000
        third order                    shell-resolved
        anisotropic                    true
        a3                             3.000000
        a5                             4.000000
        cn-shift                       1.200000
        cn-exp                         4.000000
        max-rad                        5.000000


          ...................................................
          :                      SETUP                      :
          :.................................................:
          :  # basis functions                 134          :
          :  # atomic orbitals                 132          :
          :  # shells                           72          :
          :  # electrons                       154          :
          :  max. iterations                   250          :
          :  Hamiltonian                  GFN2-xTB          :
          :  restarted?                      false          :
          :  GBSA solvation                  false          :
          :  PC potential                    false          :
          :  electronic temp.          300.0000000     K    :
          :  accuracy                    1.0000000          :
          :  -> integral cutoff          0.2500000E+02      :
          :  -> integral neglect         0.1000000E-07      :
          :  -> SCF convergence          0.1000000E-05 Eh   :
          :  -> wf. convergence          0.1000000E-03 e    :
          :  Broyden damping             0.4000000          :
          ...................................................

 iter      E             dE          RMSdq      gap      omega  full diag
   1    -95.1807564 -0.951808E+02  0.657E+00    4.57       0.0  T
   2    -95.3128901 -0.132134E+00  0.363E+00    3.69       1.0  T
   3    -95.3308756 -0.179855E-01  0.123E+00    4.13       1.0  T
   4    -95.3467752 -0.158996E-01  0.595E-01    3.70       1.0  T
   5    -95.3482134 -0.143820E-02  0.202E-01    3.86       1.0  T
   6    -95.3486327 -0.419291E-03  0.793E-02    3.80       1.0  T
   7    -95.3486522 -0.195500E-04  0.291E-02    3.80       1.0  T
   8    -95.3486572 -0.499253E-05  0.121E-02    3.80       1.2  T
   9    -95.3486578 -0.594240E-06  0.494E-03    3.80       3.1  T
  10    -95.3486581 -0.274253E-06  0.153E-03    3.80       9.8  T
  11    -95.3486581 -0.907345E-08  0.688E-04    3.80      21.9  T
  12    -95.3486581 -0.410563E-08  0.180E-04    3.80      83.9  T

   *** convergence criteria satisfied after 12 iterations ***

         #    Occupation            Energy/Eh            Energy/eV
      -------------------------------------------------------------
         1        2.0000           -0.7700772             -20.9549
       ...           ...                  ...                  ...
        71        2.0000           -0.4436209             -12.0715
        72        2.0000           -0.4404336             -11.9848
        73        2.0000           -0.4385249             -11.9329
        74        2.0000           -0.4355806             -11.8528
        75        2.0000           -0.4329481             -11.7811
        76        2.0000           -0.4295060             -11.6875
        77        2.0000           -0.4187083             -11.3936 (HOMO)
        78                         -0.2791546              -7.5962 (LUMO)
        79                         -0.1017427              -2.7686
        80                         -0.0949415              -2.5835
        81                         -0.0759561              -2.0669
        82                         -0.0666431              -1.8135
       ...                                ...                  ...
       132                          1.2495542              34.0021
      -------------------------------------------------------------
                  HL-Gap            0.1395536 Eh            3.7974 eV
             Fermi-level           -0.3489314 Eh           -9.4949 eV

 SCC (total)                   0 d,  0 h,  0 min,  0.088 sec
 SCC setup                      ...        0 min,  0.000 sec (  0.359%)
 Dispersion                     ...        0 min,  0.001 sec (  0.631%)
 classical contributions        ...        0 min,  0.000 sec (  0.120%)
 integral evaluation            ...        0 min,  0.013 sec ( 14.328%)
 iterations                     ...        0 min,  0.035 sec ( 39.408%)
 molecular gradient             ...        0 min,  0.039 sec ( 44.688%)
 printout                       ...        0 min,  0.000 sec (  0.441%)

         :::::::::::::::::::::::::::::::::::::::::::::::::::::
         ::                     SUMMARY                     ::
         :::::::::::::::::::::::::::::::::::::::::::::::::::::
         :: total energy             -94.779433694966 Eh    ::
         :: gradient norm              0.121972709003 Eh/a0 ::
         :: HOMO-LUMO gap              3.797447473107 eV    ::
         ::.................................................::
         :: SCC energy               -95.348658118334 Eh    ::
         :: -> isotropic ES            0.375988288875 Eh    ::
         :: -> anisotropic ES         -0.016315839953 Eh    ::
         :: -> anisotropic XC         -0.008519906818 Eh    ::
         :: -> dispersion             -0.049210584545 Eh    ::
         :: repulsion energy           0.567655563858 Eh    ::
         :: add. restraining           0.000000000000 Eh    ::
         :: total charge               0.000000000000 e     ::
         :::::::::::::::::::::::::::::::::::::::::::::::::::::


Property printout bound to 'properties.out'

           -------------------------------------------------
          | TOTAL ENERGY              -94.779433694966 Eh   |
          | GRADIENT NORM               0.121972709003 Eh/α |
          | HOMO-LUMO GAP               3.797447473107 eV   |
           -------------------------------------------------

------------------------------------------------------------------------
 * finished run on 2023/12/06 at 20:55:58.307     
------------------------------------------------------------------------
 total:
 * wall-time:     0 d,  0 h,  0 min,  0.108 sec
 *  cpu-time:     0 d,  0 h,  0 min,  0.108 sec
 * ratio c/w:     1.000 speedup
 SCF:
 * wall-time:     0 d,  0 h,  0 min,  0.089 sec
 *  cpu-time:     0 d,  0 h,  0 min,  0.088 sec
 * ratio c/w:     0.993 speedup


-------------------------   --------------------
FINAL SINGLE POINT ENERGY       -94.779433694970
-------------------------   --------------------

------------------------------------------------------------------------------
                         ORCA GEOMETRY RELAXATION STEP
------------------------------------------------------------------------------

Reading the OPT-File                    .... done
Getting information on internals        .... done
Copying old internal coords+grads       .... done
Making the new internal coordinates     .... (new redundants).... done
Validating the new internal coordinates .... (new redundants).... done
Calculating the B-matrix                .... done
Calculating the G,G- and P matrices     .... done
Transforming gradient to internals      .... done
Projecting the internal gradient        .... done
Number of atoms                         ....  44
Number of internal coordinates          .... 233
Current Energy                          ....   -94.779433695 Eh
Current gradient norm                   ....     0.121972709 Eh/bohr
Maximum allowed component of the step   ....  0.300
Current trust radius                    ....  0.300
Evaluating the initial hessian          ....  (Almloef) done
Projecting the Hessian                  .... done
Forming the augmented Hessian           .... done
Diagonalizing the augmented Hessian     .... done
Last element of RFO vector              ....  0.950775519
Lowest eigenvalues of augmented Hessian:
 -0.021542938  0.000660151  0.009671583  0.010199208  0.010723534
Length of the computed step             ....  0.325923916
Warning: the length of the step is outside the trust region - taking restricted step instead
The input lambda is                     ....    -0.021543
   iter:   1  x=   -0.026682  g=    3.157490 f(x)=     0.016226
   iter:   2  x=   -0.027908  g=    2.201693 f(x)=     0.002699
   iter:   3  x=   -0.027956  g=    2.043121 f(x)=     0.000099
   iter:   4  x=   -0.027957  g=    2.037233 f(x)=     0.000000
   iter:   5  x=   -0.027957  g=    2.037225 f(x)=     0.000000
   iter:   6  x=   -0.027957  g=    2.037225 f(x)=     0.000000
The output lambda is                    ....    -0.027957 (6 iterations)
The final length of the internal step   ....  0.300000000
Converting the step to cartesian space:
 Initial RMS(Int)=    0.0196536535
Transforming coordinates:
 Iter   0:  RMS(Cart)=    0.0661742183 RMS(Int)=    0.0194702930
 Iter   1:  RMS(Cart)=    0.0023233744 RMS(Int)=    0.0008026296
 Iter   2:  RMS(Cart)=    0.0000451787 RMS(Int)=    0.0000187381
 Iter   3:  RMS(Cart)=    0.0000040416 RMS(Int)=    0.0000013029
 Iter   4:  RMS(Cart)=    0.0000000848 RMS(Int)=    0.0000000398
done
Storing new coordinates                 .... done

                                .--------------------.
          ----------------------|Geometry convergence|-------------------------
          Item                value                   Tolerance       Converged
          ---------------------------------------------------------------------
          RMS gradient        0.0066814340            0.0001000000      NO
          MAX gradient        0.0415604412            0.0003000000      NO
          RMS step            0.0196536535            0.0020000000      NO
          MAX step            0.0724086198            0.0040000000      NO
          ........................................................
          Max(Bonds)      0.0383      Max(Angles)    2.36
          Max(Dihed)        3.53      Max(Improp)    0.00
          ---------------------------------------------------------------------

The optimization has not yet converged - more geometry cycles are needed


    ---------------------------------------------------------------------------
                         Redundant Internal Coordinates
                            (Angstroem and degrees)

        Definition                    Value    dE/dq     Step     New-Value
    ----------------------------------------------------------------------------
     1. B(C   1,O   0)                1.2246  0.041560 -0.0208    1.2037   
     2. B(O   2,C   1)                1.3563  0.015981 -0.0143    1.3420   
     3. B(C   3,O   2)                1.4430  0.013854 -0.0161    1.4269   
     4. B(C   4,C   3)                1.5365  0.004104 -0.0055    1.5310   
     5. B(O   5,C   4)                1.4239  0.006280 -0.0064    1.4175   
     6. B(P   6,O   5)                1.6039  0.006538 -0.0039    1.6000   
     7. B(O   7,P   6)                1.4873  0.033736 -0.0133    1.4740   
     8. B(O   8,P   6)                1.5926 -0.001447  0.0008    1.5934   
     9. B(O   9,P   6)                1.5979  0.005616 -0.0033    1.5946   
    10. B(C  10,C   3)                1.5312  0.003389 -0.0030    1.5282   
    11. B(O  11,C  10)                1.4309  0.014003 -0.0145    1.4164   
    12. B(C  12,C  10)                1.5331  0.003343 -0.0026    1.5305   
    13. B(O  13,C  12)                1.4322  0.009960 -0.0104    1.4218   
    14. B(C  14,C  12)                1.5483  0.011770 -0.0154    1.5329   
    15. B(C  14,C   1)                1.5399  0.005361 -0.0082    1.5317   
    16. B(O  15,C  14)                1.4629  0.024643 -0.0286    1.4343   
    17. B(C  16,C  14)                1.5526  0.009956 -0.0142    1.5385   
    18. B(O  17,C  16)                1.4603  0.020536 -0.0236    1.4367   
    19. B(C  18,C  16)                1.5442  0.012828 -0.0177    1.5264   
    20. B(O  19,C  18)                1.4513  0.012253 -0.0137    1.4376   
    21. B(C  20,C  18)                1.5225  0.003012 -0.0039    1.5186   
    22. B(O  21,C  20)                1.4267 -0.000250  0.0003    1.4270   
    23. B(P  22,O  21)                1.6019  0.011538 -0.0068    1.5950   
    24. B(O  23,P  22)                1.4884  0.033938 -0.0134    1.4750   
    25. B(O  24,P  22)                1.6002  0.008571 -0.0051    1.5951   
    26. B(O  25,P  22)                1.5958 -0.006616  0.0038    1.5996   
    27. B(H  26,C   3)                1.0982  0.000692 -0.0010    1.0972   
    28. B(H  27,C   4)                1.0958  0.001354 -0.0019    1.0939   
    29. B(H  28,C   4)                1.0966  0.003301 -0.0046    1.0920   
    30. B(H  29,O   8)                0.9780  0.016346 -0.0168    0.9612   
    31. B(H  30,O   9)                0.9716  0.013909 -0.0140    0.9576   
    32. B(H  31,C  10)                1.0990 -0.000543  0.0008    1.0997   
    33. B(H  32,O  11)                0.9769  0.011421 -0.0117    0.9652   
    34. B(H  33,C  12)                1.0984 -0.001187  0.0017    1.1001   
    35. B(H  34,O  13)                0.9789  0.010730 -0.0111    0.9678   
    36. B(H  35,O  15)                0.9841  0.009524 -0.0100    0.9741   
    37. B(H  36,C  16)                1.0964 -0.001086  0.0015    1.0980   
    38. B(H  37,O  17)                0.9828  0.013673 -0.0143    0.9685   
    39. B(H  38,C  18)                1.0949 -0.001601  0.0022    1.0971   
    40. B(H  39,O  19)                0.9775  0.011405 -0.0117    0.9658   
    41. B(H  40,C  20)                1.0939  0.000666 -0.0009    1.0930   
    42. B(H  41,C  20)                1.0899  0.001336 -0.0018    1.0881   
    43. B(H  42,O   7)                3.3726  0.002020 -0.0383    3.3343   
    44. B(H  42,O  24)                0.9847  0.023229 -0.0245    0.9603   
    45. B(H  43,O  25)                0.9745  0.015930 -0.0162    0.9583   
    46. A(O   0,C   1,C  14)          125.51  0.000450   -0.03    125.48   
    47. A(O   0,C   1,O   2)          118.55  0.000852   -0.07    118.48   
    48. A(O   2,C   1,C  14)          115.90 -0.001170   -0.04    115.86   
    49. A(C   1,O   2,C   3)          120.41 -0.001376   -0.30    120.10   
    50. A(C  10,C   3,H  26)          111.81  0.001767   -0.41    111.40   
    51. A(O   2,C   3,C  10)          109.44  0.002069   -0.63    108.80   
    52. A(C   4,C   3,H  26)          108.44 -0.000643    0.45    108.89   
    53. A(O   2,C   3,C   4)          106.19  0.001133   -0.32    105.87   
    54. A(C   4,C   3,C  10)          112.10 -0.002669    0.47    112.57   
    55. A(O   2,C   3,H  26)          108.66 -0.001712    0.46    109.12   
    56. A(O   5,C   4,H  28)          110.66  0.000127   -0.06    110.60   
    57. A(C   3,C   4,O   5)          108.83 -0.002159    0.24    109.08   
    58. A(C   3,C   4,H  27)          110.92  0.001865   -0.33    110.59   
    59. A(O   5,C   4,H  27)          107.93 -0.000094    0.12    108.05   
    60. A(H  27,C   4,H  28)          107.88 -0.002509    0.63    108.51   
    61. A(C   3,C   4,H  28)          110.58  0.002739   -0.58    110.00   
    62. A(C   4,O   5,P   6)          119.67  0.002564   -0.30    119.37   
    63. A(O   5,P   6,O   7)          116.01  0.007679   -1.04    114.98   
    64. A(O   8,P   6,O   9)          102.13  0.003755   -0.26    101.87   
    65. A(O   7,P   6,O   9)          114.40 -0.005246    0.50    114.89   
    66. A(O   5,P   6,O   9)          103.71  0.005896   -1.04    102.67   
    67. A(O   7,P   6,O   8)          113.85 -0.004671    0.92    114.77   
    68. A(O   5,P   6,O   8)          105.22 -0.007288    0.90    106.12   
    69. A(P   6,O   8,H  29)          111.99 -0.000672    0.09    112.08   
    70. A(P   6,O   9,H  30)          111.10  0.004033   -0.52    110.58   
    71. A(C   3,C  10,H  31)          111.20  0.004016   -0.81    110.39   
    72. A(C  12,C  10,H  31)          108.28 -0.001738    0.64    108.92   
    73. A(O  11,C  10,C  12)          108.59  0.003561   -0.93    107.66   
    74. A(C   3,C  10,O  11)          113.21 -0.000389   -0.33    112.88   
    75. A(C   3,C  10,C  12)          108.51 -0.001521    0.04    108.55   
    76. A(O  11,C  10,H  31)          106.93 -0.003969    1.42    108.35   
    77. A(C  10,O  11,H  32)          107.43 -0.001598    0.24    107.67   
    78. A(C  10,C  12,H  33)          108.39 -0.000549   -0.14    108.26   
    79. A(O  13,C  12,C  14)          114.05  0.004736   -1.25    112.80   
    80. A(C  10,C  12,C  14)          112.77  0.005069   -1.01    111.76   
    81. A(C  10,C  12,O  13)          107.91 -0.006970    1.50    109.41   
    82. A(C  14,C  12,H  33)          108.81  0.000890   -0.90    107.91   
    83. A(O  13,C  12,H  33)          104.47 -0.004043    2.06    106.53   
    84. A(C  12,O  13,H  34)          105.31 -0.001264    0.19    105.50   
    85. A(O  15,C  14,C  16)          106.35 -0.003911    1.21    107.56   
    86. A(C  12,C  14,C  16)          114.37  0.002690   -0.51    113.86   
    87. A(C   1,C  14,C  16)          113.23 -0.000424   -0.01    113.21   
    88. A(C  12,C  14,O  15)          105.36  0.001359   -0.54    104.82   
    89. A(C   1,C  14,O  15)          104.25  0.001709   -0.19    104.07   
    90. A(C   1,C  14,C  12)          112.23 -0.001547    0.11    112.34   
    91. A(C  14,O  15,H  35)          103.85 -0.005344    0.83    104.68   
    92. A(O  17,C  16,H  36)          103.06 -0.004919    2.36    105.42   
    93. A(C  14,C  16,H  36)          109.37  0.000504   -0.26    109.10   
    94. A(O  17,C  16,C  18)          106.95 -0.000966    0.06    107.01   
    95. A(C  14,C  16,C  18)          119.40  0.001989   -1.00    118.39   
    96. A(C  14,C  16,O  17)          107.45  0.002172   -0.61    106.84   
    97. A(C  18,C  16,H  36)          109.34  0.000133   -0.02    109.32   
    98. A(C  16,O  17,H  37)          103.89 -0.003152    0.49    104.37   
    99. A(C  16,C  18,O  19)          106.62  0.006405   -1.36    105.26   
   100. A(O  19,C  18,H  38)          103.10 -0.005655    2.36    105.46   
   101. A(C  20,C  18,H  38)          110.28  0.001916   -0.30    109.98   
   102. A(O  19,C  18,C  20)          108.54 -0.003591    0.79    109.33   
   103. A(C  16,C  18,H  38)          111.28  0.001270   -0.67    110.61   
   104. A(C  16,C  18,C  20)          116.10 -0.000972   -0.46    115.64   
   105. A(C  18,O  19,H  39)          105.30 -0.002273    0.35    105.65   
   106. A(C  18,C  20,H  41)          110.99 -0.000266   -0.15    110.84   
   107. A(H  40,C  20,H  41)          109.87  0.000604   -0.15    109.71   
   108. A(O  21,C  20,H  41)          109.70 -0.002295    0.38    110.07   
   109. A(O  21,C  20,H  40)          106.96 -0.004297    0.94    107.89   
   110. A(C  18,C  20,H  40)          110.88  0.001126   -0.28    110.60   
   111. A(C  18,C  20,O  21)          108.34  0.004996   -0.68    107.66   
   112. A(C  20,O  21,P  22)          117.87  0.002056   -0.23    117.63   
   113. A(O  24,P  22,O  25)          102.23  0.000557    0.10    102.33   
   114. A(O  23,P  22,O  25)          112.65 -0.002697    0.71    113.35   
   115. A(O  21,P  22,O  25)          104.60 -0.003340    0.22    104.82   
   116. A(O  23,P  22,O  24)          113.65 -0.009199    1.19    114.84   
   117. A(O  21,P  22,O  24)          105.95  0.009990   -1.50    104.45   
   118. A(O  21,P  22,O  23)          116.40  0.005023   -0.76    115.64   
   119. A(P  22,O  24,H  42)          109.75  0.003333   -0.44    109.32   
   120. A(P  22,O  25,H  43)          110.77  0.002787   -0.36    110.41   
   121. D(C   3,O   2,C   1,C  14)     26.16  0.000125    0.21     26.37   
   122. D(C   3,O   2,C   1,O   0)   -155.96  0.003790   -3.53   -159.49   
   123. D(C   4,C   3,O   2,C   1)    149.99 -0.001629    0.88    150.87   
   124. D(H  26,C   3,O   2,C   1)    -93.54 -0.002630    1.46    -92.07   
   125. D(C  10,C   3,O   2,C   1)     28.81 -0.000248    0.85     29.66   
   126. D(H  28,C   4,C   3,C  10)    173.36  0.001075   -0.85    172.51   
   127. D(O   5,C   4,C   3,O   2)    -67.85 -0.001139    0.14    -67.71   
   128. D(H  27,C   4,C   3,H  26)     56.93  0.000924   -0.55     56.38   
   129. D(H  28,C   4,C   3,O   2)     53.90 -0.000655   -0.15     53.75   
   130. D(O   5,C   4,C   3,H  26)    175.53  0.000581   -0.45    175.08   
   131. D(H  27,C   4,C   3,O   2)    173.54 -0.000795    0.04    173.59   
   132. D(H  27,C   4,C   3,C  10)    -66.99  0.000935   -0.66    -67.66   
   133. D(O   5,C   4,C   3,C  10)     51.61  0.000591   -0.57     51.04   
   134. D(H  28,C   4,C   3,H  26)    -62.72  0.001064   -0.74    -63.46   
   135. D(P   6,O   5,C   4,C   3)    114.28  0.000954   -0.83    113.45   
   136. D(P   6,O   5,C   4,H  28)     -7.43 -0.001118   -0.23     -7.65   
   137. D(P   6,O   5,C   4,H  27)   -125.26  0.001899   -1.02   -126.28   
   138. D(O   9,P   6,O   5,C   4)     60.57  0.000337    0.08     60.65   
   139. D(O   7,P   6,O   5,C   4)   -173.11  0.003256   -0.79   -173.90   
   140. D(O   8,P   6,O   5,C   4)    -46.32 -0.003409    0.43    -45.89   
   141. D(H  29,O   8,P   6,O   5)    -79.35  0.001124    0.15    -79.20   
   142. D(H  29,O   8,P   6,O   9)    172.61 -0.004307    1.09    173.69   
   143. D(H  29,O   8,P   6,O   7)     48.76  0.002179    0.14     48.91   
   144. D(H  30,O   9,P   6,O   8)    -75.35  0.001126   -1.16    -76.51   
   145. D(H  30,O   9,P   6,O   7)     48.12 -0.004975    0.07     48.20   
   146. D(H  30,O   9,P   6,O   5)    175.46  0.005872   -1.72    173.74   
   147. D(O  11,C  10,C   3,H  26)    -64.10 -0.001027   -0.14    -64.24   
   148. D(O  11,C  10,C   3,C   4)     57.92 -0.002512    0.49     58.41   
   149. D(C  12,C  10,C   3,C   4)    178.54  0.000679   -0.86    177.67   
   150. D(O  11,C  10,C   3,O   2)    175.46 -0.001406   -0.02    175.44   
   151. D(C  12,C  10,C   3,O   2)    -63.92  0.001784   -1.38    -65.30   
   152. D(H  31,C  10,C   3,H  26)    175.50  0.001472   -1.16    174.34   
   153. D(H  31,C  10,C   3,C   4)    -62.48 -0.000012   -0.53    -63.02   
   154. D(H  31,C  10,C   3,O   2)     55.06  0.001093   -1.05     54.01   
   155. D(C  12,C  10,C   3,H  26)     56.52  0.002163   -1.49     55.03   
   156. D(H  32,O  11,C  10,C  12)    163.45 -0.001020    0.79    164.24   
   157. D(H  32,O  11,C  10,H  31)     46.82  0.001302   -0.24     46.58   
   158. D(H  32,O  11,C  10,C   3)    -75.99 -0.000713   -0.01    -76.00   
   159. D(H  33,C  12,C  10,O  11)     46.24 -0.002328    0.89     47.14   
   160. D(H  33,C  12,C  10,C   3)    -77.19 -0.003121    1.84    -75.35   
   161. D(C  14,C  12,C  10,H  31)    -77.47 -0.002100    0.56    -76.91   
   162. D(C  14,C  12,C  10,O  11)    166.78  0.001626   -0.97    165.80   
   163. D(C  14,C  12,C  10,C   3)     43.34  0.000833   -0.02     43.32   
   164. D(O  13,C  12,C  10,H  31)     49.41  0.002358   -0.64     48.77   
   165. D(O  13,C  12,C  10,O  11)    -66.35  0.006084   -2.17    -68.52   
   166. D(H  33,C  12,C  10,H  31)    162.00 -0.006054    2.42    164.42   
   167. D(O  13,C  12,C  10,C   3)    170.22  0.005291   -1.22    168.99   
   168. D(H  34,O  13,C  12,C  14)   -175.40  0.001858   -1.03   -176.43   
   169. D(H  34,O  13,C  12,C  10)     58.47 -0.002743    0.03     58.49   
   170. D(H  34,O  13,C  12,H  33)    -56.74  0.002865   -1.46    -58.20   
   171. D(O  15,C  14,C  12,H  33)     15.15  0.000296    0.16     15.31   
   172. D(O  15,C  14,C  12,O  13)    131.31 -0.001324    1.38    132.70   
   173. D(O  15,C  14,C  12,C  10)   -105.15 -0.002865    1.60   -103.55   
   174. D(C   1,C  14,C  12,O  13)   -115.85  0.000722    0.92   -114.94   
   175. D(C   1,C  14,C  12,C  10)      7.68 -0.000819    1.13      8.81   
   176. D(C  16,C  14,C   1,O   2)   -176.52  0.000545   -1.03   -177.56   
   177. D(C  16,C  14,C   1,O   0)      5.77 -0.003416    3.00      8.77   
   178. D(C   1,C  14,C  12,H  33)    127.98  0.002342   -0.31    127.67   
   179. D(O  15,C  14,C   1,O   2)     68.33  0.004390   -2.36     65.97   
   180. D(O  15,C  14,C   1,O   0)   -109.38  0.000429    1.68   -107.70   
   181. D(C  12,C  14,C   1,O   2)    -45.19  0.002550   -1.68    -46.87   
   182. D(C  16,C  14,C  12,C  10)    138.44 -0.000397    0.74    139.18   
   183. D(C  12,C  14,C   1,O   0)    137.10 -0.001411    2.36    139.46   
   184. D(C  16,C  14,C  12,H  33)   -101.27  0.002763   -0.70   -101.97   
   185. D(C  16,C  14,C  12,O  13)     14.90  0.001144    0.52     15.42   
   186. D(H  35,O  15,C  14,C  16)    -34.77  0.000597    0.44    -34.32   
   187. D(H  35,O  15,C  14,C  12)   -156.54 -0.001244    0.70   -155.83   
   188. D(H  35,O  15,C  14,C   1)     85.13 -0.000864    0.90     86.03   
   189. D(H  36,C  16,C  14,O  15)    -76.61  0.002192   -1.39    -78.00   
   190. D(H  36,C  16,C  14,C  12)     39.24  0.002800   -1.55     37.69   
   191. D(H  36,C  16,C  14,C   1)    169.50  0.002698   -1.89    167.61   
   192. D(C  18,C  16,C  14,O  15)    156.45 -0.000206   -0.25    156.21   
   193. D(C  18,C  16,C  14,C  12)    -87.70  0.000402   -0.40    -88.11   
   194. D(C  18,C  16,C  14,C   1)     42.56  0.000300   -0.74     41.82   
   195. D(O  17,C  16,C  14,O  15)     34.59 -0.002196    0.92     35.51   
   196. D(O  17,C  16,C  14,C  12)    150.44 -0.001587    0.76    151.20   
   197. D(O  17,C  16,C  14,C   1)    -79.30 -0.001690    0.43    -78.87   
   198. D(H  37,O  17,C  16,H  36)    -70.80  0.001191   -1.04    -71.84   
   199. D(H  37,O  17,C  16,C  18)     44.43 -0.001240    0.01     44.44   
   200. D(H  37,O  17,C  16,C  14)    173.75  0.001997   -1.58    172.17   
   201. D(H  38,C  18,C  16,H  36)    163.03 -0.004879    2.57    165.60   
   202. D(H  38,C  18,C  16,O  17)     52.09  0.001219   -0.18     51.91   
   203. D(H  38,C  18,C  16,C  14)    -70.02 -0.002308    1.31    -68.71   
   204. D(C  20,C  18,C  16,H  36)    -69.75 -0.001861    1.15    -68.60   
   205. D(C  20,C  18,C  16,O  17)    179.32  0.004237   -1.60    177.72   
   206. D(C  20,C  18,C  16,C  14)     57.21  0.000709   -0.11     57.10   
   207. D(O  19,C  18,C  16,H  36)     51.31 -0.002291    0.85     52.15   
   208. D(O  19,C  18,C  16,O  17)    -59.63  0.003807   -1.90    -61.53   
   209. D(O  19,C  18,C  16,C  14)    178.26  0.000279   -0.41    177.85   
   210. D(H  39,O  19,C  18,H  38)     67.68 -0.001353    0.64     68.32   
   211. D(H  39,O  19,C  18,C  20)    -49.28  0.000810   -0.53    -49.81   
   212. D(H  39,O  19,C  18,C  16)   -175.04  0.000159    0.40   -174.64   
   213. D(H  41,C  20,C  18,H  38)     74.58  0.003488   -2.04     72.53   
   214. D(H  41,C  20,C  18,O  19)   -173.16 -0.004147    1.02   -172.14   
   215. D(H  41,C  20,C  18,C  16)    -53.14  0.000799   -0.45    -53.59   
   216. D(H  40,C  20,C  18,H  38)   -163.01  0.004858   -2.54   -165.56   
   217. D(H  40,C  20,C  18,O  19)    -50.75 -0.002776    0.52    -50.23   
   218. D(H  40,C  20,C  18,C  16)     69.27  0.002170   -0.95     68.32   
   219. D(O  21,C  20,C  18,H  38)    -45.92  0.003279   -1.98    -47.90   
   220. D(O  21,C  20,C  18,O  19)     66.34 -0.004355    1.09     67.43   
   221. D(O  21,C  20,C  18,C  16)   -173.64  0.000591   -0.39   -174.03   
   222. D(P  22,O  21,C  20,H  41)     17.22 -0.000361   -1.04     16.19   
   223. D(P  22,O  21,C  20,H  40)   -101.89  0.002666   -1.60   -103.49   
   224. D(P  22,O  21,C  20,C  18)    138.53  0.001024   -1.42    137.11   
   225. D(O  25,P  22,O  21,C  20)     55.32  0.001651    0.06     55.39   
   226. D(O  24,P  22,O  21,C  20)    -52.26 -0.001320    0.41    -51.84   
   227. D(O  23,P  22,O  21,C  20)   -179.67 -0.001144    0.65   -179.03   
   228. D(H  42,O  24,P  22,O  25)     85.02 -0.003364    1.75     86.78   
   229. D(H  42,O  24,P  22,O  23)    -36.65  0.004368    0.21    -36.44   
   230. D(H  42,O  24,P  22,O  21)   -165.70 -0.003505    1.54   -164.16   
   231. D(H  43,O  25,P  22,O  24)   -154.98  0.006766   -0.32   -155.30   
   232. D(H  43,O  25,P  22,O  23)    -32.63 -0.005346    1.54    -31.09   
   233. D(H  43,O  25,P  22,O  21)     94.72 -0.003169    1.20     95.91   
    ----------------------------------------------------------------------------

         *************************************************************
         *                GEOMETRY OPTIMIZATION CYCLE   2            *
         *************************************************************
---------------------------------
CARTESIAN COORDINATES (ANGSTROEM)
---------------------------------
  O     0.868958   -1.590567    1.163564
  C     1.012143   -1.203439    0.032826
  O     2.041529   -0.385763   -0.237204
  C     2.017251    0.434217   -1.404656
  C     2.845831    1.675174   -1.062112
  O     2.162978    2.429653   -0.075301
  P     2.797105    2.565458    1.387343
  O     1.942755    3.249329    2.374833
  O     3.260067    1.099565    1.806707
  O     4.192985    3.280223    1.098365
  C     0.565036    0.772701   -1.738544
  O     0.445107    1.671139   -2.826920
  C    -0.160182   -0.519599   -2.121103
  O    -1.559055   -0.274071   -2.186740
  C     0.197324   -1.672617   -1.176339
  O     1.114954   -2.485807   -1.920584
  C    -1.001462   -2.557341   -0.793010
  O    -0.482446   -3.871324   -0.531844
  C    -1.838189   -2.158850    0.419852
  O    -2.893785   -3.132393    0.488081
  C    -2.441415   -0.766012    0.372617
  O    -3.062243   -0.519960    1.633684
  P    -2.848380    0.915403    2.295602
  O    -3.490530    1.115077    3.608338
  O    -1.267374    1.127225    2.284219
  O    -3.340205    1.955784    1.184523
  H     2.503406   -0.101055   -2.229926
  H     2.973589    2.308389   -1.944943
  H     3.833325    1.377538   -0.703276
  H     2.523917    0.561193    2.110270
  H     4.631605    3.506292    1.919026
  H     0.064911    1.217329   -0.865837
  H     0.672510    2.552441   -2.505774
  H     0.155384   -0.803681   -3.135941
  H    -1.668275    0.425029   -2.847016
  H     1.039460   -3.371331   -1.521822
  H    -1.657951   -2.670919   -1.665723
  H    -1.237413   -4.361315   -0.174181
  H    -1.262480   -2.286465    1.345036
  H    -3.475133   -2.836814    1.200473
  H    -3.213369   -0.707229   -0.398913
  H    -1.674284   -0.018252    0.181914
  H    -1.038516    1.844335    2.880462
  H    -4.249640    2.211506    1.345473

----------------------------
CARTESIAN COORDINATES (A.U.)
----------------------------
  NO LB    ZA    FRAG    MASS        X           Y           Z
   0 O   8.0000    0    15.999    1.642093   -3.005736    2.198817
   1 C   6.0000    0    12.011    1.912673   -2.274169    0.062033
   2 O   8.0000    0    15.999    3.857931   -0.728986   -0.448251
   3 C   6.0000    0    12.011    3.812051    0.820552   -2.654414
   4 C   6.0000    0    12.011    5.377841    3.165621   -2.007101
   5 O   8.0000    0    15.999    4.087437    4.591378   -0.142297
   6 P  15.0000    0    30.974    5.285762    4.848014    2.621698
   7 O   8.0000    0    15.999    3.671274    6.140342    4.487783
   8 O   8.0000    0    15.999    6.160634    2.077878    3.414181
   9 O   8.0000    0    15.999    7.923594    6.198723    2.075610
  10 C   6.0000    0    12.011    1.067762    1.460193   -3.285372
  11 O   8.0000    0    15.999    0.841130    3.157995   -5.342105
  12 C   6.0000    0    12.011   -0.302700   -0.981899   -4.008303
  13 O   8.0000    0    15.999   -2.946188   -0.517920   -4.132339
  14 C   6.0000    0    12.011    0.372888   -3.160788   -2.222958
  15 O   8.0000    0    15.999    2.106958   -4.697495   -3.629378
  16 C   6.0000    0    12.011   -1.892488   -4.832674   -1.498572
  17 O   8.0000    0    15.999   -0.911690   -7.315742   -1.005039
  18 C   6.0000    0    12.011   -3.473674   -4.079635    0.793405
  19 O   8.0000    0    15.999   -5.468462   -5.919365    0.922340
  20 C   6.0000    0    12.011   -4.613606   -1.447553    0.704144
  21 O   8.0000    0    15.999   -5.786800   -0.982582    3.087215
  22 P  15.0000    0    30.974   -5.382658    1.729861    4.338060
  23 O   8.0000    0    15.999   -6.596147    2.107191    6.818771
  24 O   8.0000    0    15.999   -2.394990    2.130147    4.316549
  25 O   8.0000    0    15.999   -6.312073    3.695896    2.238425
  26 H   1.0000    0     1.008    4.730752   -0.190967   -4.213950
  27 H   1.0000    0     1.008    5.619269    4.362223   -3.675410
  28 H   1.0000    0     1.008    7.243935    2.603169   -1.329000
  29 H   1.0000    0     1.008    4.769512    1.060502    3.987832
  30 H   1.0000    0     1.008    8.752465    6.625932    3.626433
  31 H   1.0000    0     1.008    0.122664    2.300419   -1.636195
  32 H   1.0000    0     1.008    1.270860    4.823415   -4.735226
  33 H   1.0000    0     1.008    0.293634   -1.518736   -5.926070
  34 H   1.0000    0     1.008   -3.152584    0.803189   -5.380081
  35 H   1.0000    0     1.008    1.964294   -6.370892   -2.875827
  36 H   1.0000    0     1.008   -3.133073   -5.047305   -3.147760
  37 H   1.0000    0     1.008   -2.338372   -8.241691   -0.329154
  38 H   1.0000    0     1.008   -2.385741   -4.320793    2.541750
  39 H   1.0000    0     1.008   -6.567050   -5.360801    2.268566
  40 H   1.0000    0     1.008   -6.072388   -1.336469   -0.753836
  41 H   1.0000    0     1.008   -3.163939   -0.034491    0.343767
  42 H   1.0000    0     1.008   -1.962512    3.485289    5.443284
  43 H   1.0000    0     1.008   -8.030655    4.179142    2.542575

      -----------------------------------------------------------      
     |                   =====================                   |     
     |                           x T B                           |     
     |                   =====================                   |     
     |                         S. Grimme                         |     
     |          Mulliken Center for Theoretical Chemistry        |     
     |                    University of Bonn                     |     
      -----------------------------------------------------------      

   * xtb version 6.5.1 (579679a) compiled by 'ehlert@majestix' on 2022-07-11

   xtb is free software: you can redistribute it and/or modify it under
   the terms of the GNU Lesser General Public License as published by
   the Free Software Foundation, either version 3 of the License, or
   (at your option) any later version.
   
   xtb is distributed in the hope that it will be useful,
   but WITHOUT ANY WARRANTY; without even the implied warranty of
   MERCHANTABILITY or FITNESS FOR A PARTICULAR PURPOSE.  See the
   GNU Lesser General Public License for more details.
   
   Cite this work as:
   * C. Bannwarth, E. Caldeweyher, S. Ehlert, A. Hansen, P. Pracht,
     J. Seibert, S. Spicher, S. Grimme, WIREs Comput. Mol. Sci., 2020, 11,
     e01493. DOI: 10.1002/wcms.1493
   
   for GFN2-xTB:
   * C. Bannwarth, S. Ehlert and S. Grimme., J. Chem. Theory Comput., 2019,
     15, 1652-1671. DOI: 10.1021/acs.jctc.8b01176
   for GFN1-xTB:
   * S. Grimme, C. Bannwarth, P. Shushkov, J. Chem. Theory Comput., 2017,
     13, 1989-2009. DOI: 10.1021/acs.jctc.7b00118
   for GFN0-xTB:
   * P. Pracht, E. Caldeweyher, S. Ehlert, S. Grimme, ChemRxiv, 2019, preprint.
     DOI: 10.26434/chemrxiv.8326202.v1
   for GFN-FF:
   * S. Spicher and S. Grimme, Angew. Chem. Int. Ed., 2020, 59, 15665-15673.
     DOI: 10.1002/anie.202004239
   
   for ALPB and GBSA implicit solvation:
   * S. Ehlert, M. Stahn, S. Spicher, S. Grimme, J. Chem. Theory Comput.,
     2021, 17, 4250-4261. DOI: 10.1021/acs.jctc.1c00471
   
   for DFT-D4:
   * E. Caldeweyher, C. Bannwarth and S. Grimme, J. Chem. Phys., 2017,
     147, 034112. DOI: 10.1063/1.4993215
   * E. Caldeweyher, S. Ehlert, A. Hansen, H. Neugebauer, S. Spicher,
     C. Bannwarth and S. Grimme, J. Chem. Phys., 2019, 150, 154122.
     DOI: 10.1063/1.5090222
   * E. Caldeweyher, J.-M. Mewes, S. Ehlert and S. Grimme, Phys. Chem. Chem. Phys.
     2020, 22, 8499-8512. DOI: 10.1039/D0CP00502A
   
   for sTDA-xTB:
   * S. Grimme and C. Bannwarth, J. Chem. Phys., 2016, 145, 054103.
     DOI: 10.1063/1.4959605
   
   in the mass-spec context:
   * V. Asgeirsson, C. Bauer and S. Grimme, Chem. Sci., 2017, 8, 4879.
     DOI: 10.1039/c7sc00601b
   * J. Koopman and S. Grimme, ACS Omega 2019, 4, 12, 15120-15133.
     DOI: 10.1021/acsomega.9b02011
   
   for metadynamics refer to:
   * S. Grimme, J. Chem. Theory Comput., 2019, 155, 2847-2862
     DOI: 10.1021/acs.jctc.9b00143
   
   for SPH calculations refer to:
   * S. Spicher and S. Grimme, J. Chem. Theory Comput., 2021, 17, 1701-1714
     DOI: 10.1021/acs.jctc.0c01306
   
   with help from (in alphabetical order)
   P. Atkinson, C. Bannwarth, F. Bohle, G. Brandenburg, E. Caldeweyher
   M. Checinski, S. Dohm, S. Ehlert, S. Ehrlich, I. Gerasimov, C. Hölzer
   A. Katbashev, J. Koopman, C. Lavigne, S. Lehtola, F. März, M. Müller,
   F. Musil, H. Neugebauer, J. Pisarek, C. Plett, P. Pracht, F. Pultar,
   J. Seibert, P. Shushkov, S. Spicher, M. Stahn, M. Steiner, T. Strunk,
   J. Stückrath, T. Rose, and J. Unsleber
   
 * started run on 2023/12/06 at 20:55:58.515     

           -------------------------------------------------
          |                Calculation Setup                |
           -------------------------------------------------

          program call               : otool_xtb /tmp/20_XTB.xyz --grad -c 0 -u 0 -P 1 --namespace /tmp/20 --input /tmp/20_XTB.input.tmp --acc 1.000000
          calculation namespace      : /tmp/20
          coordinate file            : /tmp/20_XTB.xyz
          omp threads                :                     1

   ID    Z sym.   atoms
    1    8 O      1, 3, 6, 8-10, 12, 14, 16, 18, 20, 22, 24-26
    2    6 C      2, 4, 5, 11, 13, 15, 17, 19, 21
    3   15 P      7, 23
    4    1 H      27-44

           -------------------------------------------------
          |                 G F N 2 - x T B                 |
           -------------------------------------------------

        Reference                      10.1021/acs.jctc.8b01176
      * Hamiltonian:
        H0-scaling (s, p, d)           1.850000    2.230000    2.230000
        zeta-weighting                 0.500000
      * Dispersion:
        s8                             2.700000
        a1                             0.520000
        a2                             5.000000
        s9                             5.000000
      * Repulsion:
        kExp                           1.500000    1.000000
        rExp                           1.000000
      * Coulomb:
        alpha                          2.000000
        third order                    shell-resolved
        anisotropic                    true
        a3                             3.000000
        a5                             4.000000
        cn-shift                       1.200000
        cn-exp                         4.000000
        max-rad                        5.000000

q/qsh data taken from xtbrestart
CAMM data taken from xtbrestart

          ...................................................
          :                      SETUP                      :
          :.................................................:
          :  # basis functions                 134          :
          :  # atomic orbitals                 132          :
          :  # shells                           72          :
          :  # electrons                       154          :
          :  max. iterations                   250          :
          :  Hamiltonian                  GFN2-xTB          :
          :  restarted?                       true          :
          :  GBSA solvation                  false          :
          :  PC potential                    false          :
          :  electronic temp.          300.0000000     K    :
          :  accuracy                    1.0000000          :
          :  -> integral cutoff          0.2500000E+02      :
          :  -> integral neglect         0.1000000E-07      :
          :  -> SCF convergence          0.1000000E-05 Eh   :
          :  -> wf. convergence          0.1000000E-03 e    :
          :  Broyden damping             0.4000000          :
          ...................................................

 iter      E             dE          RMSdq      gap      omega  full diag
   1    -95.4073086 -0.954073E+02  0.255E-01    4.01       0.0  T
   2    -95.4073990 -0.904127E-04  0.150E-01    3.99       1.0  T
   3    -95.4073942  0.476410E-05  0.441E-02    4.00       1.0  T
   4    -95.4074127 -0.185008E-04  0.971E-03    3.99       1.6  T
   5    -95.4074139 -0.122033E-05  0.483E-03    3.99       3.1  T
   6    -95.4074141 -0.145474E-06  0.189E-03    3.99       8.0  T
   7    -95.4074141 -0.124583E-07  0.735E-04    3.99      20.5  T
[...]
 22:    185.37   0.001837    9.28  0.003093  (-0.049986  0.024370 -0.000036)
 23:    211.19   0.000617    3.12  0.000911  ( 0.015612 -0.000826  0.025821)
 24:    230.03   0.003495   17.66  0.004742  (-0.047059 -0.029670 -0.040582)
 25:    239.03   0.001866    9.43  0.002436  (-0.013547 -0.046223 -0.010778)
 26:    252.98   0.003825   19.33  0.004718  ( 0.008825 -0.049271 -0.047041)
 27:    257.92   0.005247   26.52  0.006348  ( 0.059341  0.021848  0.048474)
 28:    261.90   0.001470    7.43  0.001751  ( 0.037671 -0.017829  0.003745)
 29:    273.65   0.005744   29.03  0.006550  (-0.018380 -0.034613 -0.070813)
 30:    285.02   0.011936   60.32  0.013069  (-0.072886  0.009239  0.087585)
 31:    292.87   0.010933   55.25  0.011649  (-0.066867 -0.007772  0.084367)
 32:    313.39   0.009278   46.89  0.009239  (-0.067679 -0.037029 -0.057338)
 33:    322.10   0.013210   66.76  0.012799  (-0.112748 -0.009103 -0.001947)
 34:    326.44   0.000548    2.77  0.000523  (-0.019191 -0.009220  0.008377)
 35:    331.13   0.001937    9.79  0.001826  ( 0.021854  0.033984  0.013893)
 36:    339.02   0.006345   32.07  0.005841  ( 0.016528  0.044600 -0.059820)
 37:    354.35   0.000979    4.95  0.000862  ( 0.026077  0.011513 -0.007045)
 38:    356.33   0.021252  107.40  0.018612  (-0.115655 -0.047471 -0.054611)
 39:    364.36   0.003838   19.40  0.003287  (-0.037047 -0.008794 -0.042863)
 40:    373.83   0.026256  132.69  0.021918  (-0.147070 -0.014523  0.008781)
 41:    386.10   0.000375    1.89  0.000303  (-0.003967 -0.004489  0.016344)
 42:    393.92   0.010068   50.88  0.007976  (-0.006945  0.042923  0.078009)
 43:    409.84   0.007753   39.18  0.005903  ( 0.066927  0.037637 -0.002746)
 44:    414.71   0.024647  124.56  0.018547  (-0.055976 -0.121561 -0.025228)
 45:    424.30   0.040606  205.21  0.029865  ( 0.046209 -0.028772  0.164017)
 46:    435.63   0.017490   88.38  0.012529  ( 0.065504  0.049797 -0.075883)
 47:    443.88   0.018303   92.50  0.012868  (-0.093458  0.052891  0.036554)
 48:    447.14   0.007291   36.85  0.005089  (-0.067355  0.016005  0.017201)
 49:    464.45   0.018754   94.77  0.012601  (-0.033679 -0.072240 -0.079043)
 50:    474.30   0.000577    2.92  0.000380  (-0.019058 -0.003279  0.002413)
 51:    494.52   0.003401   17.19  0.002146  (-0.039364 -0.004840 -0.023938)
 52:    508.46   0.003559   17.99  0.002184  ( 0.028745 -0.021160  0.030173)
 53:    518.31   0.039651  200.38  0.023873  ( 0.151663  0.003904  0.029262)
 54:    549.82   0.002166   10.94  0.001229  (-0.015072 -0.031623 -0.001437)
 55:    593.55   0.008158   41.23  0.004289  (-0.043774  0.015359 -0.046228)
 56:    624.90   0.002488   12.57  0.001243  (-0.022015  0.022763 -0.015486)
 57:    650.59   0.011862   59.94  0.005690  (-0.070822 -0.022176 -0.013491)
 58:    704.19   0.008204   41.46  0.003635  ( 0.027724  0.052143 -0.012160)
 59:    718.47   0.005581   28.20  0.002424  ( 0.039056 -0.013936 -0.026541)
 60:    722.37   0.019288   97.47  0.008332  ( 0.050764 -0.034474 -0.067578)
 61:    733.84   0.019374   97.91  0.008239  (-0.082107 -0.032496 -0.021005)
 62:    754.52   0.012329   62.30  0.005099  ( 0.011878  0.015788  0.068620)
 63:    780.33   0.018816   95.09  0.007525  (-0.067486 -0.050236  0.021133)
 64:    788.43   0.049058  247.92  0.019417  ( 0.065156  0.090138 -0.083948)
 65:    833.21   0.015453   78.09  0.005788  ( 0.015189  0.009848  0.073891)
 66:    858.31   0.051527  260.40  0.018734  ( 0.087413  0.092086  0.051120)
 67:    868.93   0.082295  415.89  0.029555  ( 0.108341 -0.104979  0.082442)
 68:    898.83   0.022538  113.90  0.007825  ( 0.032192 -0.057440  0.059071)
 69:    909.28   0.062134  314.00  0.021324  (-0.130926 -0.049455 -0.041674)
 70:    915.44   0.040226  203.28  0.013712  (-0.095859 -0.049323  0.045726)
 71:    919.22   0.014112   71.32  0.004791  ( 0.010511 -0.051287  0.045278)
 72:    933.96   0.012599   63.67  0.004210  (-0.051559  0.003044 -0.039271)
 73:    952.67   0.011908   60.18  0.003901  (-0.013237 -0.012367 -0.059770)
 74:    991.98   0.009776   49.40  0.003075  ( 0.010000  0.031841  0.044289)
 75:   1009.31   0.002749   13.89  0.000850  (-0.015422  0.017431  0.017556)
 76:   1026.77   0.015225   76.94  0.004627  (-0.033595  0.000762  0.059144)
 77:   1042.98   0.018845   95.23  0.005639  ( 0.071992 -0.021135  0.002993)
 78:   1050.59   0.006762   34.17  0.002008  ( 0.021741 -0.015140  0.036147)
 79:   1062.86   0.020264  102.41  0.005950  (-0.063382  0.020148  0.039070)
 80:   1076.19   0.005516   27.88  0.001600  ( 0.028829 -0.025876  0.009943)
 81:   1086.70   0.049793  251.63  0.014299  ( 0.024401 -0.102934 -0.055751)
 82:   1094.45   0.040144  202.87  0.011446  (-0.045415  0.096216  0.011249)
 83:   1103.20   0.010716   54.16  0.003031  (-0.017492 -0.012375 -0.050718)
 84:   1121.17   0.005135   25.95  0.001429  (-0.016261 -0.032077  0.011657)
 85:   1122.88   0.008315   42.02  0.002311  (-0.015925 -0.042558 -0.015690)
 86:   1134.84   0.005792   29.27  0.001593  (-0.007806 -0.026036  0.029220)
 87:   1140.40   0.038124  192.66  0.010432  ( 0.000171  0.073403 -0.071024)
 88:   1143.60   0.010104   51.06  0.002757  (-0.009752 -0.044764  0.025656)
 89:   1180.75   0.046305  234.01  0.012238  (-0.088463 -0.061384 -0.025381)
 90:   1194.32   0.015266   77.15  0.003989  (-0.001070  0.062892 -0.005689)
 91:   1207.61   0.006914   34.94  0.001787  (-0.017484 -0.015651  0.035156)
 92:   1210.58   0.002106   10.64  0.000543  ( 0.003482 -0.022942 -0.002092)
 93:   1214.27   0.003174   16.04  0.000816  ( 0.002120 -0.006054  0.027830)
 94:   1224.60   0.025511  128.92  0.006501  (-0.070631 -0.038727  0.003534)
 95:   1237.76   0.011063   55.91  0.002789  ( 0.002493 -0.030820  0.042813)
 96:   1241.22   0.009639   48.71  0.002423  (-0.041313 -0.025280 -0.008810)
 97:   1246.86   0.099086  500.74  0.024799  ( 0.131532 -0.016772 -0.084954)
 98:   1263.82   0.016035   81.04  0.003959  (-0.023759  0.054031  0.021807)
 99:   1269.75   0.016778   84.79  0.004123  (-0.016382 -0.057596  0.023190)
100:   1290.03   0.010984   55.51  0.002657  ( 0.035267  0.007573 -0.036822)
101:   1298.84   0.018494   93.46  0.004443  ( 0.012115 -0.031631 -0.057412)
102:   1301.40   0.076357  385.88  0.018310  (-0.072444  0.052204  0.101668)
103:   1304.74   0.006707   33.89  0.001604  ( 0.031680 -0.024425  0.001975)
104:   1310.60   0.003908   19.75  0.000931  ( 0.011578 -0.004559  0.027851)
105:   1319.54   0.002810   14.20  0.000665  (-0.012141 -0.022691  0.001519)
106:   1324.48   0.000184    0.93  0.000043  ( 0.001250 -0.004752 -0.004384)
107:   1342.14   0.004182   21.13  0.000972  ( 0.022447  0.019822 -0.008692)
108:   1347.85   0.001468    7.42  0.000340  ( 0.015142  0.007346 -0.007531)
109:   1355.69   0.011252   56.86  0.002590  ( 0.012789 -0.045219 -0.019540)
110:   1360.68   0.007495   37.87  0.001719  ( 0.026320 -0.032032 -0.000099)
111:   1435.03   0.001191    6.02  0.000259  (-0.015905 -0.000081 -0.002451)
112:   1442.66   0.000482    2.44  0.000104  (-0.008902 -0.002631 -0.004254)
113:   1751.58   0.074324  375.60  0.013242  ( 0.015502 -0.084547  0.076506)
114:   2864.80   0.003634   18.37  0.000396  (-0.013346  0.000463  0.014750)
115:   2901.75   0.007422   37.51  0.000798  ( 0.012229 -0.000504 -0.025464)
116:   2915.94   0.006168   31.17  0.000660  ( 0.025634 -0.000342 -0.001702)
117:   2953.28   0.000415    2.10  0.000044  (-0.004459 -0.001001  0.004796)
118:   2963.75   0.002042   10.32  0.000215  ( 0.013070  0.003385 -0.005724)
119:   2965.80   0.001358    6.86  0.000143  (-0.003294 -0.003150  0.011050)
120:   2966.56   0.003225   16.30  0.000339  (-0.015226 -0.001255 -0.010287)
121:   2975.56   0.000672    3.40  0.000070  ( 0.007509 -0.001995 -0.003177)
122:   2983.13   0.001205    6.09  0.000126  (-0.001674  0.000819 -0.011072)
123:   3027.79   0.261780  1322.93  0.026981  ( 0.135759  0.070952  0.059297)
124:   3307.09   0.036502  184.47  0.003444  (-0.015888 -0.052078  0.021906)
125:   3461.36   0.013148   66.45  0.001185  (-0.008370  0.001978 -0.033338)
126:   3484.90   0.010006   50.57  0.000896  ( 0.006036 -0.024517  0.016077)
127:   3531.69   0.009759   49.32  0.000862  ( 0.014512 -0.023504 -0.009965)
128:   3552.58   0.013751   69.49  0.001208  (-0.021464 -0.025927 -0.008658)
129:   3554.92   0.010326   52.18  0.000906  ( 0.002098 -0.027495 -0.012086)
130:   3627.11   0.022568  114.05  0.001942  (-0.004616 -0.019476 -0.039256)
131:   3638.84   0.009911   50.09  0.000850  ( 0.015855 -0.024433 -0.001266)

* The epsilon (eps) is given for a Dirac delta lineshape.
** The dipole moment derivative (T) already includes vibrational overlap.

The first frequency considered to be a vibration is 6
The total number of vibrations considered is 126


--------------------------
THERMOCHEMISTRY AT 298.15K
--------------------------

Temperature         ... 298.15 K
Pressure            ... 1.00 atm
Total Mass          ... 428.18 AMU

Throughout the following assumptions are being made:
  (1) The electronic state is orbitally nondegenerate
  (2) There are no thermally accessible electronically excited states
  (3) Hindered rotations indicated by low frequency modes are not
      treated as such but are treated as vibrations and this may
      cause some error
  (4) All equations used are the standard statistical mechanics
      equations for an ideal gas
  (5) All vibrations are strictly harmonic

freq.      17.23  E(vib)   ...       0.57 
freq.      29.27  E(vib)   ...       0.55 
freq.      32.18  E(vib)   ...       0.55 
freq.      45.41  E(vib)   ...       0.53 
freq.      51.89  E(vib)   ...       0.52 
freq.      53.55  E(vib)   ...       0.52 
freq.      68.68  E(vib)   ...       0.50 
freq.      95.03  E(vib)   ...       0.47 
freq.     100.40  E(vib)   ...       0.46 
freq.     102.63  E(vib)   ...       0.46 
freq.     120.01  E(vib)   ...       0.44 
freq.     136.81  E(vib)   ...       0.42 
freq.     150.97  E(vib)   ...       0.40 
freq.     160.43  E(vib)   ...       0.39 
freq.     168.26  E(vib)   ...       0.38 
freq.     180.66  E(vib)   ...       0.37 
freq.     185.37  E(vib)   ...       0.37 
freq.     211.19  E(vib)   ...       0.34 
freq.     230.03  E(vib)   ...       0.32 
freq.     239.03  E(vib)   ...       0.32 
freq.     252.98  E(vib)   ...       0.30 
freq.     257.92  E(vib)   ...       0.30 
freq.     261.90  E(vib)   ...       0.29 
freq.     273.65  E(vib)   ...       0.28 
freq.     285.02  E(vib)   ...       0.28 
freq.     292.87  E(vib)   ...       0.27 
freq.     313.39  E(vib)   ...       0.25 
freq.     322.10  E(vib)   ...       0.25 
freq.     326.44  E(vib)   ...       0.24 
freq.     331.13  E(vib)   ...       0.24 
freq.     339.02  E(vib)   ...       0.23 
freq.     354.35  E(vib)   ...       0.22 
freq.     356.33  E(vib)   ...       0.22 
freq.     364.36  E(vib)   ...       0.22 
freq.     373.83  E(vib)   ...       0.21 
freq.     386.10  E(vib)   ...       0.20 
freq.     393.92  E(vib)   ...       0.20 
freq.     409.84  E(vib)   ...       0.19 
freq.     414.71  E(vib)   ...       0.19 
freq.     424.30  E(vib)   ...       0.18 
freq.     435.63  E(vib)   ...       0.17 
freq.     443.88  E(vib)   ...       0.17 
freq.     447.14  E(vib)   ...       0.17 
freq.     464.45  E(vib)   ...       0.16 
freq.     474.30  E(vib)   ...       0.15 
freq.     494.52  E(vib)   ...       0.14 
freq.     508.46  E(vib)   ...       0.14 
freq.     518.31  E(vib)   ...       0.13 
freq.     549.82  E(vib)   ...       0.12 
freq.     593.55  E(vib)   ...       0.10 
freq.     624.90  E(vib)   ...       0.09 
freq.     650.59  E(vib)   ...       0.08 
freq.     704.19  E(vib)   ...       0.07 
freq.     718.47  E(vib)   ...       0.07 
freq.     722.37  E(vib)   ...       0.07 
freq.     733.84  E(vib)   ...       0.06 
freq.     754.52  E(vib)   ...       0.06 
freq.     780.33  E(vib)   ...       0.05 
freq.     788.43  E(vib)   ...       0.05 
freq.     833.21  E(vib)   ...       0.04 
freq.     858.31  E(vib)   ...       0.04 
freq.     868.93  E(vib)   ...       0.04 
freq.     898.83  E(vib)   ...       0.03 
freq.     909.28  E(vib)   ...       0.03 
freq.     915.44  E(vib)   ...       0.03 
freq.     919.22  E(vib)   ...       0.03 
freq.     933.96  E(vib)   ...       0.03 
freq.     952.67  E(vib)   ...       0.03 
freq.     991.98  E(vib)   ...       0.02 
freq.    1009.31  E(vib)   ...       0.02 
freq.    1026.77  E(vib)   ...       0.02 
freq.    1042.98  E(vib)   ...       0.02 
freq.    1050.59  E(vib)   ...       0.02 
freq.    1062.86  E(vib)   ...       0.02 
freq.    1076.19  E(vib)   ...       0.02 
freq.    1086.70  E(vib)   ...       0.02 
freq.    1094.45  E(vib)   ...       0.02 
freq.    1103.20  E(vib)   ...       0.02 
freq.    1121.17  E(vib)   ...       0.01 
freq.    1122.88  E(vib)   ...       0.01 
freq.    1134.84  E(vib)   ...       0.01 
freq.    1140.40  E(vib)   ...       0.01 
freq.    1143.60  E(vib)   ...       0.01 
freq.    1180.75  E(vib)   ...       0.01 
freq.    1194.32  E(vib)   ...       0.01 
freq.    1207.61  E(vib)   ...       0.01 
freq.    1210.58  E(vib)   ...       0.01 
freq.    1214.27  E(vib)   ...       0.01 
freq.    1224.60  E(vib)   ...       0.01 
freq.    1237.76  E(vib)   ...       0.01 
freq.    1241.22  E(vib)   ...       0.01 
freq.    1246.86  E(vib)   ...       0.01 
freq.    1263.82  E(vib)   ...       0.01 
freq.    1269.75  E(vib)   ...       0.01 
freq.    1290.03  E(vib)   ...       0.01 
freq.    1298.84  E(vib)   ...       0.01 
freq.    1301.40  E(vib)   ...       0.01 
freq.    1304.74  E(vib)   ...       0.01 
freq.    1310.60  E(vib)   ...       0.01 
freq.    1319.54  E(vib)   ...       0.01 
freq.    1324.48  E(vib)   ...       0.01 
freq.    1342.14  E(vib)   ...       0.01 
freq.    1347.85  E(vib)   ...       0.01 
freq.    1355.69  E(vib)   ...       0.01 
freq.    1360.68  E(vib)   ...       0.01 
freq.    1435.03  E(vib)   ...       0.00 
freq.    1442.66  E(vib)   ...       0.00 
freq.    1751.58  E(vib)   ...       0.00 
freq.    2864.80  E(vib)   ...       0.00 
freq.    2901.75  E(vib)   ...       0.00 
freq.    2915.94  E(vib)   ...       0.00 
freq.    2953.28  E(vib)   ...       0.00 
freq.    2963.75  E(vib)   ...       0.00 
freq.    2965.80  E(vib)   ...       0.00 
freq.    2966.56  E(vib)   ...       0.00 
freq.    2975.56  E(vib)   ...       0.00 
freq.    2983.13  E(vib)   ...       0.00 
freq.    3027.79  E(vib)   ...       0.00 
freq.    3307.09  E(vib)   ...       0.00 
freq.    3461.36  E(vib)   ...       0.00 
freq.    3484.90  E(vib)   ...       0.00 
freq.    3531.69  E(vib)   ...       0.00 
freq.    3552.58  E(vib)   ...       0.00 
freq.    3554.92  E(vib)   ...       0.00 
freq.    3627.11  E(vib)   ...       0.00 
freq.    3638.84  E(vib)   ...       0.00 

------------
INNER ENERGY
------------

The inner energy is: U= E(el) + E(ZPE) + E(vib) + E(rot) + E(trans)
    E(el)   - is the total energy from the electronic structure calculation
              = E(kin-el) + E(nuc-el) + E(el-el) + E(nuc-nuc)
    E(ZPE)  - the the zero temperature vibrational energy from the frequency calculation
    E(vib)  - the the finite temperature correction to E(ZPE) due to population
              of excited vibrational states
    E(rot)  - is the rotational thermal energy
    E(trans)- is the translational thermal energy

Summary of contributions to the inner energy U:
Electronic energy                ...    -94.81651230 Eh
Zero point energy                ...      0.30794518 Eh     193.24 kcal/mol
Thermal vibrational correction   ...      0.02622224 Eh      16.45 kcal/mol
Thermal rotational correction    ...      0.00141627 Eh       0.89 kcal/mol
Thermal translational correction ...      0.00141627 Eh       0.89 kcal/mol
-----------------------------------------------------------------------
Total thermal energy                    -94.47951234 Eh


Summary of corrections to the electronic energy:
(perhaps to be used in another calculation)
Total thermal correction                  0.02905478 Eh      18.23 kcal/mol
Non-thermal (ZPE) correction              0.30794518 Eh     193.24 kcal/mol
-----------------------------------------------------------------------
Total correction                          0.33699996 Eh     211.47 kcal/mol


--------
ENTHALPY
--------

The enthalpy is H = U + kB*T
                kB is Boltzmann's constant
Total free energy                 ...    -94.47951234 Eh 
Thermal Enthalpy correction       ...      0.00094421 Eh       0.59 kcal/mol
-----------------------------------------------------------------------
Total Enthalpy                    ...    -94.47856813 Eh


Note: Only C1 symmetry has been detected, increase convergence thresholds 
      if your molecule has a higher symmetry. Symmetry factor of 1.0 is   
      used for the rotational entropy correction. 
 

Note: Rotational entropy computed according to Herzberg 
Infrared and Raman Spectra, Chapter V,1, Van Nostrand Reinhold, 1945 
Point Group:  C1, Symmetry Number:   1  
Rotational constants in cm-1:     0.007635     0.005803     0.004576 

Vibrational entropy computed according to the QRRHO of S. Grimme
Chem.Eur.J. 2012 18 9955


-------
ENTROPY
-------

The entropy contributions are T*S = T*(S(el)+S(vib)+S(rot)+S(trans))
     S(el)   - electronic entropy
     S(vib)  - vibrational entropy
     S(rot)  - rotational entropy
     S(trans)- translational entropy
The entropies will be listed as multiplied by the temperature to get
units of energy

Electronic entropy                ...      0.00000000 Eh      0.00 kcal/mol
Vibrational entropy               ...      0.04646558 Eh     29.16 kcal/mol
Rotational entropy                ...      0.01678634 Eh     10.53 kcal/mol
Translational entropy             ...      0.02093102 Eh     13.13 kcal/mol
-----------------------------------------------------------------------
Final entropy term                ...      0.08418293 Eh     52.83 kcal/mol

In case the symmetry of your molecule has not been determined correctly
or in case you have a reason to use a different symmetry number we print 
out the resulting rotational entropy values for sn=1,12 :
 --------------------------------------------------------
|  sn= 1 | S(rot)=       0.01678634 Eh     10.53 kcal/mol|
|  sn= 2 | S(rot)=       0.01613188 Eh     10.12 kcal/mol|
|  sn= 3 | S(rot)=       0.01574905 Eh      9.88 kcal/mol|
|  sn= 4 | S(rot)=       0.01547742 Eh      9.71 kcal/mol|
|  sn= 5 | S(rot)=       0.01526674 Eh      9.58 kcal/mol|
|  sn= 6 | S(rot)=       0.01509459 Eh      9.47 kcal/mol|
|  sn= 7 | S(rot)=       0.01494905 Eh      9.38 kcal/mol|
|  sn= 8 | S(rot)=       0.01482297 Eh      9.30 kcal/mol|
|  sn= 9 | S(rot)=       0.01471176 Eh      9.23 kcal/mol|
|  sn=10 | S(rot)=       0.01461228 Eh      9.17 kcal/mol|
|  sn=11 | S(rot)=       0.01452229 Eh      9.11 kcal/mol|
|  sn=12 | S(rot)=       0.01444014 Eh      9.06 kcal/mol|
 --------------------------------------------------------


-------------------
GIBBS FREE ENERGY
-------------------

The Gibbs free energy is G = H - T*S

Total enthalpy                    ...    -94.47856813 Eh 
Total entropy correction          ...     -0.08418293 Eh    -52.83 kcal/mol
-----------------------------------------------------------------------
Final Gibbs free energy         ...    -94.56275106 Eh

For completeness - the Gibbs free energy minus the electronic energy
G-E(el)                           ...      0.25376124 Eh    159.24 kcal/mol



Timings for individual modules:

Sum of individual times         ...      678.187 sec (=  11.303 min)
Geometry relaxation             ...        8.835 sec (=   0.147 min)   1.3 %
Numerical frequency calculation ...      662.556 sec (=  11.043 min)  97.7 %
XTB module                      ...        6.797 sec (=   0.113 min)   1.0 %
                             ****ORCA TERMINATED NORMALLY****
TOTAL RUN TIME: 0 days 0 hours 11 minutes 24 seconds 854 msec
