
                                 *****************
                                 * O   R   C   A *
                                 *****************

                                            #,                                       
                                            ###                                      
                                            ####                                     
                                            #####                                    
                                            ######                                   
                                           ########,                                 
                                     ,,################,,,,,                         
                               ,,#################################,,                 
                          ,,##########################################,,             
                       ,#########################################, ''#####,          
                    ,#############################################,,   '####,        
                  ,##################################################,,,,####,       
                ,###########''''           ''''###############################       
              ,#####''   ,,,,##########,,,,          '''####'''          '####       
            ,##' ,,,,###########################,,,                        '##       
           ' ,,###''''                  '''############,,,                           
         ,,##''                                '''############,,,,        ,,,,,,###''
      ,#''                                            '''#######################'''  
     '                                                          ''''####''''         
             ,#######,   #######,   ,#######,      ##                                
            ,#'     '#,  ##    ##  ,#'     '#,    #''#        ######   ,####,        
            ##       ##  ##   ,#'  ##            #'  '#       #        #'  '#        
            ##       ##  #######   ##           ,######,      #####,   #    #        
            '#,     ,#'  ##    ##  '#,     ,#' ,#      #,         ##   #,  ,#        
             '#######'   ##     ##  '#######'  #'      '#     #####' # '####'        



                  #######################################################
                  #                        -***-                        #
                  #          Department of theory and spectroscopy      #
                  #    Directorship and core code : Frank Neese         #
                  #        Max Planck Institute fuer Kohlenforschung    #
                  #                Kaiser Wilhelm Platz 1               #
                  #                 D-45470 Muelheim/Ruhr               #
                  #                      Germany                        #
                  #                                                     #
                  #                  All rights reserved                #
                  #                        -***-                        #
                  #######################################################


                         Program Version 5.0.3 -  RELEASE  -


 With contributions from (in alphabetic order):
   Daniel Aravena         : Magnetic Suceptibility
   Michael Atanasov       : Ab Initio Ligand Field Theory (pilot matlab implementation)
   Alexander A. Auer      : GIAO ZORA, VPT2 properties, NMR spectrum
   Ute Becker             : Parallelization
   Giovanni Bistoni       : ED, misc. LED, open-shell LED, HFLD
   Martin Brehm           : Molecular dynamics
   Dmytro Bykov           : SCF Hessian
   Vijay G. Chilkuri      : MRCI spin determinant printing, contributions to CSF-ICE
   Dipayan Datta          : RHF DLPNO-CCSD density
   Achintya Kumar Dutta   : EOM-CC, STEOM-CC
   Dmitry Ganyushin       : Spin-Orbit,Spin-Spin,Magnetic field MRCI
   Miquel Garcia          : C-PCM and meta-GGA Hessian, CC/C-PCM, Gaussian charge scheme
   Yang Guo               : DLPNO-NEVPT2, F12-NEVPT2, CIM, IAO-localization
   Andreas Hansen         : Spin unrestricted coupled pair/coupled cluster methods
   Benjamin Helmich-Paris : MC-RPA, TRAH-SCF, COSX integrals
   Lee Huntington         : MR-EOM, pCC
   Robert Izsak           : Overlap fitted RIJCOSX, COSX-SCS-MP3, EOM
   Marcus Kettner         : VPT2
   Christian Kollmar      : KDIIS, OOCD, Brueckner-CCSD(T), CCSD density, CASPT2, CASPT2-K
   Simone Kossmann        : Meta GGA functionals, TD-DFT gradient, OOMP2, MP2 Hessian
   Martin Krupicka        : Initial AUTO-CI
   Lucas Lang             : DCDCAS
   Marvin Lechner         : AUTO-CI (C++ implementation), FIC-MRCC
   Dagmar Lenk            : GEPOL surface, SMD
   Dimitrios Liakos       : Extrapolation schemes; Compound Job, initial MDCI parallelization
   Dimitrios Manganas     : Further ROCIS development; embedding schemes
   Dimitrios Pantazis     : SARC Basis sets
   Anastasios Papadopoulos: AUTO-CI, single reference methods and gradients
   Taras Petrenko         : DFT Hessian,TD-DFT gradient, ASA, ECA, R-Raman, ABS, FL, XAS/XES, NRVS
   Peter Pinski           : DLPNO-MP2, DLPNO-MP2 Gradient
   Christoph Reimann      : Effective Core Potentials
   Marius Retegan         : Local ZFS, SOC
   Christoph Riplinger    : Optimizer, TS searches, QM/MM, DLPNO-CCSD(T), (RO)-DLPNO pert. Triples
   Tobias Risthaus        : Range-separated hybrids, TD-DFT gradient, RPA, STAB
   Michael Roemelt        : Original ROCIS implementation
   Masaaki Saitow         : Open-shell DLPNO-CCSD energy and density
   Barbara Sandhoefer     : DKH picture change effects
   Avijit Sen             : IP-ROCIS
   Kantharuban Sivalingam : CASSCF convergence, NEVPT2, FIC-MRCI
   Bernardo de Souza      : ESD, SOC TD-DFT
   Georgi Stoychev        : AutoAux, RI-MP2 NMR, DLPNO-MP2 response
   Willem Van den Heuvel  : Paramagnetic NMR
   Boris Wezisla          : Elementary symmetry handling
   Frank Wennmohs         : Technical directorship


 We gratefully acknowledge several colleagues who have allowed us to
 interface, adapt or use parts of their codes:
   Stefan Grimme, W. Hujo, H. Kruse, P. Pracht,  : VdW corrections, initial TS optimization,
                  C. Bannwarth, S. Ehlert          DFT functionals, gCP, sTDA/sTD-DF
   Ed Valeev, F. Pavosevic, A. Kumar             : LibInt (2-el integral package), F12 methods
   Garnet Chan, S. Sharma, J. Yang, R. Olivares  : DMRG
   Ulf Ekstrom                                   : XCFun DFT Library
   Mihaly Kallay                                 : mrcc  (arbitrary order and MRCC methods)
   Jiri Pittner, Ondrej Demel                    : Mk-CCSD
   Frank Weinhold                                : gennbo (NPA and NBO analysis)
   Christopher J. Cramer and Donald G. Truhlar   : smd solvation model
   Lars Goerigk                                  : TD-DFT with DH, B97 family of functionals
   V. Asgeirsson, H. Jonsson                     : NEB implementation
   FAccTs GmbH                                   : IRC, NEB, NEB-TS, DLPNO-Multilevel, CI-OPT
                                                   MM, QMMM, 2- and 3-layer-ONIOM, Crystal-QMMM,
                                                   LR-CPCM, SF, NACMEs, symmetry and pop. for TD-DFT,
                                                   nearIR, NL-DFT gradient (VV10), updates on ESD,
                                                   ML-optimized integration grids
   S Lehtola, MJT Oliveira, MAL Marques          : LibXC Library
   Liviu Ungur et al                             : ANISO software


 Your calculation uses the libint2 library for the computation of 2-el integrals
 For citations please refer to: http://libint.valeyev.net

 Your ORCA version has been built with support for libXC version: 5.1.0
 For citations please refer to: https://tddft.org/programs/libxc/

 This ORCA versions uses:
   CBLAS   interface :  Fast vector & matrix operations
   LAPACKE interface :  Fast linear algebra routines
   SCALAPACK package :  Parallel linear algebra routines
   Shared memory     :  Shared parallel matrices
   BLAS/LAPACK       :  OpenBLAS 0.3.15  USE64BITINT DYNAMIC_ARCH NO_AFFINITY Haswell SINGLE_THREADED
        Core in use  :  Haswell
   Copyright (c) 2011-2014, The OpenBLAS Project


Your calculation utilizes the semiempirical GFN2-xTB method
Please cite in your paper:
C. Bannwarth, Ehlert S., S. Grimme,  J. Chem. Theory Comput., 15, (2019), 1652.
   

================================================================================

================================================================================
                                        WARNINGS
                       Please study these warnings very carefully!
================================================================================


WARNING: Geometry Optimization
  ===> : Switching off AutoStart
         For restart on a previous wavefunction, please use MOREAD

WARNING: Found dipole moment calculation with XTB calculation
  ===> : Switching off dipole moment calculation


WARNING: TRAH-SCF for XTB is not implemented!
  ===> : Turning TRAH off!

================================================================================
                                       INPUT FILE
================================================================================
NAME = /tmp/21.inp
|  1> ! XTB2 opt numfreq
|  2> * XYZ 0 1
|  3> C -2.6596 -1.0987 2.1686
|  4> C -1.9195 -0.3010 1.0842
|  5> O -0.6882 0.1588 1.6759
|  6> C -2.7739 0.9438 0.8021
|  7> O -2.5166 2.0701 1.2071
|  8> O -3.9118 0.7064 0.1189
|  9> C -1.6334 -1.1258 -0.2126
| 10> O -2.8780 -1.6472 -0.7419
| 11> C -0.7461 -2.3256 0.1838
| 12> O -1.1969 -3.4095 0.5465
| 13> O 0.5962 -2.1108 0.2212
| 14> C 1.2240 -1.3620 -0.8373
| 15> C 2.7083 -1.1852 -0.4957
| 16> O 2.8783 -0.1908 0.5040
| 17> P 3.9044 0.9944 0.2001
| 18> O 5.3276 0.6321 -0.0202
| 19> O 3.2230 1.7706 -1.0258
| 20> O 3.6471 2.0114 1.3983
| 21> C 0.5066 -0.0418 -1.0952
| 22> O 1.0379 0.6293 -2.2464
| 23> C -0.9580 -0.3679 -1.3696
| 24> O -1.6572 0.8431 -1.7016
| 25> H -3.5889 -1.5405 1.7950
| 26> H -2.9192 -0.4513 3.0155
| 27> H -2.0304 -1.8935 2.5824
| 28> H -0.9124 0.9289 2.2382
| 29> H -4.3076 1.5986 0.0078
| 30> H -3.4501 -0.8728 -0.9242
| 31> H 1.1860 -1.9939 -1.7350
| 32> H 3.2687 -0.9173 -1.3986
| 33> H 3.1250 -2.1188 -0.1037
| 34> H 3.7731 2.5455 -1.2565
| 35> H 4.0375 1.6861 2.2305
| 36> H 0.5829 0.6590 -0.2601
| 37> H 1.8190 1.1382 -1.9292
| 38> H -1.0226 -0.9785 -2.2812
| 39> H -1.0752 1.2998 -2.3454
| 40> *
| 41> 
| 42>                          ****END OF INPUT****
================================================================================

                       *****************************
                       * Geometry Optimization Run *
                       *****************************

Geometry optimization settings:
Update method            Update   .... BFGS
Choice of coordinates    CoordSys .... Z-matrix Internals
Initial Hessian          InHess   .... Almoef's Model

Convergence Tolerances:
Energy Change            TolE     ....  5.0000e-06 Eh
Max. Gradient            TolMAXG  ....  3.0000e-04 Eh/bohr
RMS Gradient             TolRMSG  ....  1.0000e-04 Eh/bohr
Max. Displacement        TolMAXD  ....  4.0000e-03 bohr
RMS Displacement         TolRMSD  ....  2.0000e-03 bohr
Strict Convergence                ....  False
------------------------------------------------------------------------------
                        ORCA OPTIMIZATION COORDINATE SETUP
------------------------------------------------------------------------------

The optimization will be done in new redundant internal coordinates
Making redundant internal coordinates   ...  (new redundants) done
Evaluating the initial hessian          ...  (Almloef) done
Evaluating the coordinates              ...  done
Calculating the B-matrix                .... done
Calculating the G-matrix                .... done
Diagonalizing the G-matrix              .... done
Small eigenvalue found = 4.735e-03
Small eigenvalue found = 7.527e-03
Small eigenvalue found = 1.756e-02
Small eigenvalue found = 2.526e-02
The first mode is                       ....   92
The number of degrees of freedom        ....  105

    -----------------------------------------------------------------
                    Redundant Internal Coordinates


    -----------------------------------------------------------------
         Definition                    Initial Value    Approx d2E/dq
    -----------------------------------------------------------------
      1. B(C   1,C   0)                  1.5362         0.365125   
      2. B(O   2,C   1)                  1.4414         0.463314   
      3. B(C   3,C   1)                  1.5359         0.365513   
      4. B(O   4,C   3)                  1.2242         1.028784   
      5. B(O   5,C   3)                  1.3483         0.652215   
      6. B(C   6,C   1)                  1.5633         0.330586   
      7. B(O   7,C   6)                  1.4495         0.449728   
      8. B(C   8,C   6)                  1.5440         0.354839   
      9. B(O   9,C   8)                  1.2287         1.012230   
     10. B(O  10,C   8)                  1.3599         0.625044   
     11. B(C  11,O  10)                  1.4406         0.464714   
     12. B(C  12,C  11)                  1.5333         0.369035   
     13. B(O  13,C  12)                  1.4203         0.500728   
     14. B(P  14,O  13)                  1.5969         0.879733   
     15. B(O  15,P  14)                  1.4850         1.326683   
     16. B(O  16,P  14)                  1.6030         0.860071   
     17. B(O  17,P  14)                  1.5925         0.893787   
     18. B(C  18,C  11)                  1.5245         0.381198   
     19. B(O  19,C  18)                  1.4345         0.475126   
     20. B(C  20,C  18)                  1.5253         0.380012   
     21. B(C  20,C   6)                  1.5392         0.361121   
     22. B(O  21,C  20)                  1.4372         0.470463   
     23. B(H  22,C   0)                  1.0947         0.353939   
     24. B(H  23,C   0)                  1.0972         0.350753   
     25. B(H  24,C   0)                  1.0949         0.353662   
     26. B(H  25,O   2)                  0.9795         0.483938   
     27. B(H  26,O   5)                  0.9824         0.478961   
     28. B(H  27,O   7)                  0.9799         0.483280   
     29. B(H  28,C  11)                  1.0985         0.349085   
     30. B(H  29,C  12)                  1.0959         0.352349   
     31. B(H  30,C  12)                  1.0949         0.353613   
     32. B(H  31,O  16)                  0.9779         0.486852   
     33. B(H  32,O  17)                  0.9751         0.491927   
     34. B(H  33,C  18)                  1.0929         0.356342   
     35. B(H  34,O  19)                  0.9847         0.474784   
     36. B(H  35,C  20)                  1.0991         0.348261   
     37. B(H  36,O  21)                  0.9807         0.481878   
     38. A(H  23,C   0,H  24)          105.8178         0.288824   
     39. A(C   1,C   0,H  22)          112.1871         0.322191   
     40. A(C   1,C   0,H  23)          110.6382         0.321714   
     41. A(H  22,C   0,H  24)          108.8961         0.289233   
     42. A(H  22,C   0,H  23)          107.5006         0.288859   
     43. A(C   1,C   0,H  24)          111.5219         0.322149   
     44. A(C   3,C   1,C   6)          112.1509         0.354550   
     45. A(C   0,C   1,C   6)          113.5633         0.354486   
     46. A(C   0,C   1,C   3)          106.4087         0.360590   
     47. A(O   2,C   1,C   6)          110.6402         0.366884   
     48. A(C   0,C   1,O   2)          106.7033         0.373205   
     49. A(O   2,C   1,C   3)          106.9811         0.373274   
     50. A(C   1,O   2,H  25)          106.9128         0.347937   
     51. A(O   4,C   3,O   5)          120.4632         0.474020   
     52. A(C   1,C   3,O   5)          114.8239         0.396150   
     53. A(C   1,C   3,O   4)          124.6065         0.429527   
     54. A(C   3,O   5,H  26)          103.7347         0.368121   
     55. A(O   7,C   6,C  20)          106.2244         0.370594   
     56. A(O   7,C   6,C   8)          107.9188         0.369477   
     57. A(C   1,C   6,O   7)          109.6065         0.365019   
     58. A(C   8,C   6,C  20)          108.8711         0.358102   
     59. A(C   1,C   6,C  20)          116.3631         0.353824   
     60. A(C   1,C   6,C   8)          107.5892         0.352774   
     61. A(C   6,O   7,H  27)          106.5566         0.346119   
     62. A(O   9,C   8,O  10)          119.5631         0.468932   
     63. A(C   6,C   8,O   9)          123.3981         0.426010   
     64. A(C   6,C   8,O  10)          116.8438         0.391173   
     65. A(C   8,O  10,C  11)          119.4758         0.407554   
     66. A(O  10,C  11,C  18)          111.6760         0.376186   
     67. A(C  12,C  11,C  18)          113.1643         0.363847   
     68. A(C  18,C  11,H  28)          110.0987         0.323741   
     69. A(O  10,C  11,H  28)          106.6422         0.332486   
     70. A(C  12,C  11,H  28)          106.3728         0.322024   
     71. A(O  10,C  11,C  12)          108.5482         0.374086   
     72. A(H  29,C  12,H  30)          107.9857         0.289023   
     73. A(O  13,C  12,H  30)          107.4235         0.337357   
     74. A(C  11,C  12,H  30)          110.4776         0.322705   
     75. A(O  13,C  12,H  29)          110.3376         0.337156   
     76. A(C  11,C  12,H  29)          109.8550         0.322516   
     77. A(C  11,C  12,O  13)          110.6963         0.378943   
     78. A(C  12,O  13,P  14)          117.5562         0.469339   
     79. A(O  16,P  14,O  17)          101.3900         0.557766   
     80. A(O  15,P  14,O  17)          114.9770         0.606083   
     81. A(O  13,P  14,O  17)          103.1189         0.560170   
     82. A(O  15,P  14,O  16)          114.3346         0.601602   
     83. A(O  13,P  14,O  16)          103.4023         0.556087   
     84. A(O  13,P  14,O  15)          117.5797         0.604231   
     85. A(P  14,O  16,H  31)          108.9651         0.413074   
     86. A(P  14,O  17,H  32)          111.3707         0.416675   
     87. A(C  20,C  18,H  33)          109.9740         0.324670   
     88. A(O  19,C  18,H  33)          106.7005         0.334852   
     89. A(C  11,C  18,H  33)          113.1534         0.324837   
     90. A(C  11,C  18,O  19)          111.5057         0.377630   
     91. A(O  19,C  18,C  20)          108.1353         0.377426   
     92. A(C  11,C  18,C  20)          107.2856         0.365677   
     93. A(C  18,O  19,H  34)          106.0836         0.348293   
     94. A(O  21,C  20,H  35)          104.3540         0.333034   
     95. A(C  18,C  20,H  35)          108.9297         0.323450   
     96. A(C   6,C  20,H  35)          108.9116         0.320760   
     97. A(C  18,C  20,O  21)          109.1800         0.376783   
     98. A(C   6,C  20,O  21)          112.0276         0.373481   
     99. A(C   6,C  20,C  18)          113.0392         0.362309   
    100. A(C  20,O  21,H  36)          104.7925         0.348585   
    101. D(O   2,C   1,C   0,H  23)     63.1898         0.010675   
    102. D(C   6,C   1,C   0,H  23)   -174.6441         0.010675   
    103. D(C   6,C   1,C   0,H  22)    -54.6018         0.010675   
    104. D(C   3,C   1,C   0,H  23)    -50.7788         0.010675   
    105. D(O   2,C   1,C   0,H  24)    -54.3025         0.010675   
    106. D(C   3,C   1,C   0,H  24)   -168.2711         0.010675   
    107. D(C   3,C   1,C   0,H  22)     69.2634         0.010675   
    108. D(C   6,C   1,C   0,H  24)     67.8637         0.010675   
    109. D(O   2,C   1,C   0,H  22)   -176.7680         0.010675   
    110. D(H  25,O   2,C   1,C   6)    158.0323         0.016914   
    111. D(H  25,O   2,C   1,C   3)     35.6001         0.016914   
    112. D(H  25,O   2,C   1,C   0)    -77.9788         0.016914   
    113. D(O   4,C   3,C   1,C   0)    103.5521         0.010022   
    114. D(O   4,C   3,C   1,C   6)   -131.7098         0.010022   
    115. D(O   5,C   3,C   1,C   6)     52.0397         0.010022   
    116. D(O   5,C   3,C   1,C   0)    -72.6983         0.010022   
    117. D(O   4,C   3,C   1,O   2)    -10.2265         0.010022   
    118. D(O   5,C   3,C   1,O   2)    173.5231         0.010022   
    119. D(H  26,O   5,C   3,O   4)      5.2157         0.031456   
    120. D(H  26,O   5,C   3,C   1)   -178.3645         0.031456   
    121. D(C  20,C   6,C   1,C   3)     56.2992         0.008896   
    122. D(C  20,C   6,C   1,O   2)    -63.0611         0.008896   
    123. D(C  20,C   6,C   1,C   0)    176.9821         0.008896   
    124. D(C   8,C   6,C   1,C   3)    178.6973         0.008896   
    125. D(C   8,C   6,C   1,C   0)    -60.6197         0.008896   
    126. D(O   7,C   6,C   1,C   0)     56.4804         0.008896   
    127. D(O   7,C   6,C   1,O   2)    176.4372         0.008896   
    128. D(C   8,C   6,C   1,O   2)     59.3370         0.008896   
    129. D(O   7,C   6,C   1,C   3)    -64.2026         0.008896   
    130. D(H  27,O   7,C   6,C   8)    175.8899         0.015928   
    131. D(H  27,O   7,C   6,C   1)     58.9969         0.015928   
    132. D(H  27,O   7,C   6,C  20)    -67.4869         0.015928   
    133. D(O  10,C   8,C   6,C  20)     41.0949         0.009491   
    134. D(O  10,C   8,C   6,C   1)    -85.8221         0.009491   
    135. D(O   9,C   8,C   6,C  20)   -144.0134         0.009491   
    136. D(O   9,C   8,C   6,O   7)    -29.1251         0.009491   
    137. D(O  10,C   8,C   6,O   7)    155.9832         0.009491   
    138. D(O   9,C   8,C   6,C   1)     89.0696         0.009491   
    139. D(C  11,O  10,C   8,O   9)    141.4960         0.028697   
    140. D(C  11,O  10,C   8,C   6)    -43.4065         0.028697   
    141. D(H  28,C  11,O  10,C   8)    -69.7710         0.017017   
    142. D(C  18,C  11,O  10,C   8)     50.5446         0.017017   
    143. D(C  12,C  11,O  10,C   8)    175.9850         0.017017   
    144. D(H  30,C  12,C  11,H  28)    -71.6233         0.010890   
    145. D(H  30,C  12,C  11,C  18)    167.3609         0.010890   
    146. D(H  30,C  12,C  11,O  10)     42.7974         0.010890   
    147. D(H  29,C  12,C  11,H  28)     47.4083         0.010890   
    148. D(H  29,C  12,C  11,C  18)    -73.6075         0.010890   
    149. D(O  13,C  12,C  11,O  10)    -76.0687         0.010890   
    150. D(O  13,C  12,C  11,C  18)     48.4948         0.010890   
    151. D(O  13,C  12,C  11,H  28)    169.5107         0.010890   
    152. D(H  29,C  12,C  11,O  10)    161.8289         0.010890   
    153. D(P  14,O  13,C  12,H  30)    112.0757         0.019824   
    154. D(P  14,O  13,C  12,H  29)     -5.4063         0.019824   
    155. D(P  14,O  13,C  12,C  11)   -127.2256         0.019824   
    156. D(O  17,P  14,O  13,C  12)    170.8255         0.013382   
    157. D(O  16,P  14,O  13,C  12)     65.5187         0.013382   
    158. D(O  15,P  14,O  13,C  12)    -61.5209         0.013382   
    159. D(H  31,O  16,P  14,O  17)     70.9999         0.012819   
    160. D(H  31,O  16,P  14,O  15)    -53.3223         0.012819   
    161. D(H  31,O  16,P  14,O  13)    177.6194         0.012819   
    162. D(H  32,O  17,P  14,O  15)    -54.3199         0.013793   
    163. D(H  32,O  17,P  14,O  13)     74.9517         0.013793   
    164. D(H  32,O  17,P  14,O  16)   -178.2065         0.013793   
    165. D(H  33,C  18,C  11,H  28)   -175.3958         0.011578   
    166. D(H  33,C  18,C  11,C  12)    -56.5109         0.011578   
    167. D(H  33,C  18,C  11,O  10)     66.3352         0.011578   
    168. D(C  20,C  18,C  11,H  28)     63.1266         0.011578   
    169. D(C  20,C  18,C  11,C  12)   -177.9886         0.011578   
    170. D(C  20,C  18,C  11,O  10)    -55.1425         0.011578   
    171. D(O  19,C  18,C  11,H  28)    -55.1023         0.011578   
    172. D(O  19,C  18,C  11,C  12)     63.7825         0.011578   
    173. D(O  19,C  18,C  11,O  10)   -173.3713         0.011578   
    174. D(H  34,O  19,C  18,H  33)     39.2667         0.017801   
    175. D(H  34,O  19,C  18,C  20)    157.5314         0.017801   
    176. D(H  34,O  19,C  18,C  11)    -84.7507         0.017801   
    177. D(H  35,C  20,C  18,H  33)    173.5098         0.011509   
    178. D(H  35,C  20,C  18,O  19)     57.3557         0.011509   
    179. D(H  35,C  20,C  18,C  11)    -63.0372         0.011509   
    180. D(O  21,C  20,C  18,O  19)    -56.0217         0.011509   
    181. D(O  21,C  20,C  18,C  11)   -176.4146         0.011509   
    182. D(C   6,C  20,C  18,H  33)    -65.2792         0.011509   
    183. D(C   6,C  20,C  18,O  19)    178.5667         0.011509   
    184. D(C   6,C  20,C  18,C  11)     58.1738         0.011509   
    185. D(H  35,C  20,C   6,C   8)     71.1100         0.010458   
    186. D(H  35,C  20,C   6,O   7)    -44.8724         0.010458   
    187. D(H  35,C  20,C   6,C   1)   -167.1660         0.010458   
    188. D(O  21,C  20,C   6,C   8)   -173.9729         0.010458   
    189. D(O  21,C  20,C   6,O   7)     70.0447         0.010458   
    190. D(O  21,C  20,C  18,H  33)     60.1324         0.011509   
    191. D(O  21,C  20,C   6,C   1)    -52.2488         0.010458   
    192. D(C  18,C  20,C   6,C   8)    -50.1113         0.010458   
    193. D(C  18,C  20,C   6,O   7)   -166.0937         0.010458   
    194. D(C  18,C  20,C   6,C   1)     71.6128         0.010458   
    195. D(H  36,O  21,C  20,H  35)    -70.4015         0.017447   
    196. D(H  36,O  21,C  20,C  18)     45.9294         0.017447   
    197. D(H  36,O  21,C  20,C   6)    171.9250         0.017447   
    -----------------------------------------------------------------

Number of atoms                         .... 37
Number of degrees of freedom            .... 197

         *************************************************************
         *                GEOMETRY OPTIMIZATION CYCLE   1            *
         *************************************************************
---------------------------------
CARTESIAN COORDINATES (ANGSTROEM)
---------------------------------
  C    -2.659600   -1.098700    2.168600
  C    -1.919500   -0.301000    1.084200
  O    -0.688200    0.158800    1.675900
  C    -2.773900    0.943800    0.802100
  O    -2.516600    2.070100    1.207100
  O    -3.911800    0.706400    0.118900
  C    -1.633400   -1.125800   -0.212600
  O    -2.878000   -1.647200   -0.741900
  C    -0.746100   -2.325600    0.183800
  O    -1.196900   -3.409500    0.546500
  O     0.596200   -2.110800    0.221200
  C     1.224000   -1.362000   -0.837300
  C     2.708300   -1.185200   -0.495700
  O     2.878300   -0.190800    0.504000
  P     3.904400    0.994400    0.200100
  O     5.327600    0.632100   -0.020200
  O     3.223000    1.770600   -1.025800
  O     3.647100    2.011400    1.398300
  C     0.506600   -0.041800   -1.095200
  O     1.037900    0.629300   -2.246400
  C    -0.958000   -0.367900   -1.369600
  O    -1.657200    0.843100   -1.701600
  H    -3.588900   -1.540500    1.795000
  H    -2.919200   -0.451300    3.015500
  H    -2.030400   -1.893500    2.582400
  H    -0.912400    0.928900    2.238200
  H    -4.307600    1.598600    0.007800
  H    -3.450100   -0.872800   -0.924200
  H     1.186000   -1.993900   -1.735000
  H     3.268700   -0.917300   -1.398600
  H     3.125000   -2.118800   -0.103700
  H     3.773100    2.545500   -1.256500
  H     4.037500    1.686100    2.230500
  H     0.582900    0.659000   -0.260100
  H     1.819000    1.138200   -1.929200
  H    -1.022600   -0.978500   -2.281200
  H    -1.075200    1.299800   -2.345400

----------------------------
CARTESIAN COORDINATES (A.U.)
----------------------------
  NO LB    ZA    FRAG    MASS        X           Y           Z
   0 C   6.0000    0    12.011   -5.025916   -2.076242    4.098060
   1 C   6.0000    0    12.011   -3.627329   -0.568808    2.048841
   2 O   8.0000    0    15.999   -1.300510    0.300089    3.166992
   3 C   6.0000    0    12.011   -5.241911    1.783524    1.515749
   4 O   8.0000    0    15.999   -4.755685    3.911922    2.281088
   5 O   8.0000    0    15.999   -7.392231    1.334903    0.224688
   6 C   6.0000    0    12.011   -3.086679   -2.127454   -0.401756
   7 O   8.0000    0    15.999   -5.438632   -3.112757   -1.401988
   8 C   6.0000    0    12.011   -1.409925   -4.394747    0.347332
   9 O   8.0000    0    15.999   -2.261813   -6.443021    1.032735
  10 O   8.0000    0    15.999    1.126655   -3.988834    0.418007
  11 C   6.0000    0    12.011    2.313025   -2.573807   -1.582268
  12 C   6.0000    0    12.011    5.117945   -2.239703   -0.936737
  13 O   8.0000    0    15.999    5.439199   -0.360560    0.952422
  14 P  15.0000    0    30.974    7.378247    1.879144    0.378134
  15 O   8.0000    0    15.999   10.067705    1.194496   -0.038172
  16 O   8.0000    0    15.999    6.090587    3.345949   -1.938481
  17 O   8.0000    0    15.999    6.892020    3.800995    2.642404
  18 C   6.0000    0    12.011    0.957335   -0.078991   -2.069628
  19 O   8.0000    0    15.999    1.961347    1.189205   -4.245081
  20 C   6.0000    0    12.011   -1.810358   -0.695230   -2.588169
  21 O   8.0000    0    15.999   -3.131654    1.593228   -3.215558
  22 H   1.0000    0     1.008   -6.782038   -2.911123    3.392058
  23 H   1.0000    0     1.008   -5.516489   -0.852833    5.698469
  24 H   1.0000    0     1.008   -3.836900   -3.578196    4.880029
  25 H   1.0000    0     1.008   -1.724186    1.755367    4.229585
  26 H   1.0000    0     1.008   -8.140184    3.020916    0.014740
  27 H   1.0000    0     1.008   -6.519744   -1.649353   -1.746485
  28 H   1.0000    0     1.008    2.241215   -3.767925   -3.278675
  29 H   1.0000    0     1.008    6.176948   -1.733446   -2.642971
  30 H   1.0000    0     1.008    5.905394   -4.003952   -0.195965
  31 H   1.0000    0     1.008    7.130126    4.810298   -2.374441
  32 H   1.0000    0     1.008    7.629769    3.186267    4.215034
  33 H   1.0000    0     1.008    1.101521    1.245330   -0.491518
  34 H   1.0000    0     1.008    3.437412    2.150886   -3.645660
  35 H   1.0000    0     1.008   -1.932434   -1.849097   -4.310843
  36 H   1.0000    0     1.008   -2.031834    2.456266   -4.432164

      -----------------------------------------------------------      
     |                   =====================                   |     
     |                           x T B                           |     
     |                   =====================                   |     
     |                         S. Grimme                         |     
     |          Mulliken Center for Theoretical Chemistry        |     
     |                    University of Bonn                     |     
      -----------------------------------------------------------      

   * xtb version 6.5.1 (579679a) compiled by 'ehlert@majestix' on 2022-07-11

   xtb is free software: you can redistribute it and/or modify it under
   the terms of the GNU Lesser General Public License as published by
   the Free Software Foundation, either version 3 of the License, or
   (at your option) any later version.
   
   xtb is distributed in the hope that it will be useful,
   but WITHOUT ANY WARRANTY; without even the implied warranty of
   MERCHANTABILITY or FITNESS FOR A PARTICULAR PURPOSE.  See the
   GNU Lesser General Public License for more details.
   
   Cite this work as:
   * C. Bannwarth, E. Caldeweyher, S. Ehlert, A. Hansen, P. Pracht,
     J. Seibert, S. Spicher, S. Grimme, WIREs Comput. Mol. Sci., 2020, 11,
     e01493. DOI: 10.1002/wcms.1493
   
   for GFN2-xTB:
   * C. Bannwarth, S. Ehlert and S. Grimme., J. Chem. Theory Comput., 2019,
     15, 1652-1671. DOI: 10.1021/acs.jctc.8b01176
   for GFN1-xTB:
   * S. Grimme, C. Bannwarth, P. Shushkov, J. Chem. Theory Comput., 2017,
     13, 1989-2009. DOI: 10.1021/acs.jctc.7b00118
   for GFN0-xTB:
   * P. Pracht, E. Caldeweyher, S. Ehlert, S. Grimme, ChemRxiv, 2019, preprint.
     DOI: 10.26434/chemrxiv.8326202.v1
   for GFN-FF:
   * S. Spicher and S. Grimme, Angew. Chem. Int. Ed., 2020, 59, 15665-15673.
     DOI: 10.1002/anie.202004239
   
   for ALPB and GBSA implicit solvation:
   * S. Ehlert, M. Stahn, S. Spicher, S. Grimme, J. Chem. Theory Comput.,
     2021, 17, 4250-4261. DOI: 10.1021/acs.jctc.1c00471
   
   for DFT-D4:
   * E. Caldeweyher, C. Bannwarth and S. Grimme, J. Chem. Phys., 2017,
     147, 034112. DOI: 10.1063/1.4993215
   * E. Caldeweyher, S. Ehlert, A. Hansen, H. Neugebauer, S. Spicher,
     C. Bannwarth and S. Grimme, J. Chem. Phys., 2019, 150, 154122.
     DOI: 10.1063/1.5090222
   * E. Caldeweyher, J.-M. Mewes, S. Ehlert and S. Grimme, Phys. Chem. Chem. Phys.
     2020, 22, 8499-8512. DOI: 10.1039/D0CP00502A
   
   for sTDA-xTB:
   * S. Grimme and C. Bannwarth, J. Chem. Phys., 2016, 145, 054103.
     DOI: 10.1063/1.4959605
   
   in the mass-spec context:
   * V. Asgeirsson, C. Bauer and S. Grimme, Chem. Sci., 2017, 8, 4879.
     DOI: 10.1039/c7sc00601b
   * J. Koopman and S. Grimme, ACS Omega 2019, 4, 12, 15120-15133.
     DOI: 10.1021/acsomega.9b02011
   
   for metadynamics refer to:
   * S. Grimme, J. Chem. Theory Comput., 2019, 155, 2847-2862
     DOI: 10.1021/acs.jctc.9b00143
   
   for SPH calculations refer to:
   * S. Spicher and S. Grimme, J. Chem. Theory Comput., 2021, 17, 1701-1714
     DOI: 10.1021/acs.jctc.0c01306
   
   with help from (in alphabetical order)
   P. Atkinson, C. Bannwarth, F. Bohle, G. Brandenburg, E. Caldeweyher
   M. Checinski, S. Dohm, S. Ehlert, S. Ehrlich, I. Gerasimov, C. Hölzer
   A. Katbashev, J. Koopman, C. Lavigne, S. Lehtola, F. März, M. Müller,
   F. Musil, H. Neugebauer, J. Pisarek, C. Plett, P. Pracht, F. Pultar,
   J. Seibert, P. Shushkov, S. Spicher, M. Stahn, M. Steiner, T. Strunk,
   J. Stückrath, T. Rose, and J. Unsleber
   
 * started run on 2023/12/06 at 21:07:23.056     

           -------------------------------------------------
          |                Calculation Setup                |
           -------------------------------------------------

          program call               : otool_xtb /tmp/21_XTB.xyz --grad -c 0 -u 0 -P 1 --namespace /tmp/21 --input /tmp/21_XTB.input.tmp --acc 1.000000
          calculation namespace      : /tmp/21
          coordinate file            : /tmp/21_XTB.xyz
          omp threads                :                     1

   ID    Z sym.   atoms
    1    6 C      1, 2, 4, 7, 9, 12, 13, 19, 21
    2    8 O      3, 5, 6, 8, 10, 11, 14, 16-18, 20, 22
    3   15 P      15
    4    1 H      23-37

           -------------------------------------------------
          |                 G F N 2 - x T B                 |
           -------------------------------------------------

        Reference                      10.1021/acs.jctc.8b01176
      * Hamiltonian:
        H0-scaling (s, p, d)           1.850000    2.230000    2.230000
        zeta-weighting                 0.500000
      * Dispersion:
        s8                             2.700000
        a1                             0.520000
        a2                             5.000000
        s9                             5.000000
      * Repulsion:
        kExp                           1.500000    1.000000
        rExp                           1.000000
      * Coulomb:
        alpha                          2.000000
        third order                    shell-resolved
        anisotropic                    true
        a3                             3.000000
        a5                             4.000000
        cn-shift                       1.200000
        cn-exp                         4.000000
        max-rad                        5.000000


          ...................................................
          :                      SETUP                      :
          :.................................................:
          :  # basis functions                 109          :
          :  # atomic orbitals                 108          :
          :  # shells                           60          :
          :  # electrons                       128          :
          :  max. iterations                   250          :
          :  Hamiltonian                  GFN2-xTB          :
          :  restarted?                      false          :
          :  GBSA solvation                  false          :
          :  PC potential                    false          :
          :  electronic temp.          300.0000000     K    :
          :  accuracy                    1.0000000          :
          :  -> integral cutoff          0.2500000E+02      :
          :  -> integral neglect         0.1000000E-07      :
          :  -> SCF convergence          0.1000000E-05 Eh   :
          :  -> wf. convergence          0.1000000E-03 e    :
          :  Broyden damping             0.4000000          :
          ...................................................

 iter      E             dE          RMSdq      gap      omega  full diag
   1    -78.7558970 -0.787559E+02  0.632E+00    4.55       0.0  T
   2    -78.8681008 -0.112204E+00  0.363E+00    3.80       1.0  T
   3    -78.8717457 -0.364487E-02  0.146E+00    4.24       1.0  T
   4    -78.8930619 -0.213162E-01  0.482E-01    3.89       1.0  T
   5    -78.8944712 -0.140937E-02  0.190E-01    3.99       1.0  T
   6    -78.8946676 -0.196314E-03  0.654E-02    3.96       1.0  T
   7    -78.8946931 -0.255871E-04  0.355E-02    3.96       1.0  T
   8    -78.8946995 -0.633025E-05  0.116E-02    3.97       1.4  T
   9    -78.8947002 -0.739787E-06  0.523E-03    3.97       3.1  T
  10    -78.8947003 -0.115472E-06  0.168E-03    3.97       9.8  T
  11    -78.8947003 -0.175007E-07  0.718E-04    3.97      22.9  T
  12    -78.8947003 -0.233204E-08  0.216E-04    3.97      76.2  T

   *** convergence criteria satisfied after 12 iterations ***

         #    Occupation            Energy/Eh            Energy/eV
      -------------------------------------------------------------
         1        2.0000           -0.7681424             -20.9022
       ...           ...                  ...                  ...
        58        2.0000           -0.4539401             -12.3523
        59        2.0000           -0.4502601             -12.2522
        60        2.0000           -0.4427482             -12.0478
        61        2.0000           -0.4369058             -11.8888
        62        2.0000           -0.4331673             -11.7871
        63        2.0000           -0.4274064             -11.6303
        64        2.0000           -0.4207095             -11.4481 (HOMO)
        65                         -0.2749723              -7.4824 (LUMO)
        66                         -0.2625141              -7.1434
        67                         -0.0981975              -2.6721
        68                         -0.0817761              -2.2252
        69                         -0.0697167              -1.8971
       ...                                ...                  ...
       108                          1.1941242              32.4938
      -------------------------------------------------------------
                  HL-Gap            0.1457372 Eh            3.9657 eV
             Fermi-level           -0.3478409 Eh           -9.4652 eV

 SCC (total)                   0 d,  0 h,  0 min,  0.060 sec
 SCC setup                      ...        0 min,  0.000 sec (  0.434%)
 Dispersion                     ...        0 min,  0.000 sec (  0.675%)
 classical contributions        ...        0 min,  0.000 sec (  0.130%)
 integral evaluation            ...        0 min,  0.009 sec ( 14.275%)
 iterations                     ...        0 min,  0.024 sec ( 39.922%)
 molecular gradient             ...        0 min,  0.026 sec ( 44.082%)
 printout                       ...        0 min,  0.000 sec (  0.442%)

         :::::::::::::::::::::::::::::::::::::::::::::::::::::
         ::                     SUMMARY                     ::
         :::::::::::::::::::::::::::::::::::::::::::::::::::::
         :: total energy             -78.390031211711 Eh    ::
         :: gradient norm              0.121221140119 Eh/a0 ::
         :: HOMO-LUMO gap              3.965710296313 eV    ::
         ::.................................................::
         :: SCC energy               -78.894700346917 Eh    ::
         :: -> isotropic ES            0.292110067293 Eh    ::
         :: -> anisotropic ES         -0.005661759241 Eh    ::
         :: -> anisotropic XC         -0.008627444279 Eh    ::
         :: -> dispersion             -0.040730384980 Eh    ::
         :: repulsion energy           0.503835368014 Eh    ::
         :: add. restraining           0.000000000000 Eh    ::
         :: total charge               0.000000000000 e     ::
         :::::::::::::::::::::::::::::::::::::::::::::::::::::


Property printout bound to 'properties.out'

           -------------------------------------------------
          | TOTAL ENERGY              -78.390031211711 Eh   |
          | GRADIENT NORM               0.121221140119 Eh/α |
          | HOMO-LUMO GAP               3.965710296313 eV   |
           -------------------------------------------------

------------------------------------------------------------------------
 * finished run on 2023/12/06 at 21:07:23.131     
------------------------------------------------------------------------
 total:
 * wall-time:     0 d,  0 h,  0 min,  0.075 sec
 *  cpu-time:     0 d,  0 h,  0 min,  0.072 sec
 * ratio c/w:     0.954 speedup
 SCF:
 * wall-time:     0 d,  0 h,  0 min,  0.060 sec
 *  cpu-time:     0 d,  0 h,  0 min,  0.060 sec
 * ratio c/w:     0.997 speedup


-------------------------   --------------------
FINAL SINGLE POINT ENERGY       -78.390031211710
-------------------------   --------------------

------------------------------------------------------------------------------
                         ORCA GEOMETRY RELAXATION STEP
------------------------------------------------------------------------------

Reading the OPT-File                    .... done
Getting information on internals        .... done
Copying old internal coords+grads       .... done
Making the new internal coordinates     .... (new redundants).... done
Validating the new internal coordinates .... (new redundants).... done
Calculating the B-matrix                .... done
Calculating the G,G- and P matrices     .... done
Transforming gradient to internals      .... done
Projecting the internal gradient        .... done
Number of atoms                         ....  37
Number of internal coordinates          .... 197
Current Energy                          ....   -78.390031212 Eh
Current gradient norm                   ....     0.121221140 Eh/bohr
Maximum allowed component of the step   ....  0.300
Current trust radius                    ....  0.300
Evaluating the initial hessian          ....  (Almloef) done
Projecting the Hessian                  .... done
Forming the augmented Hessian           .... done
Diagonalizing the augmented Hessian     .... done
Last element of RFO vector              ....  0.938541912
Lowest eigenvalues of augmented Hessian:
 -0.024230513  0.009172427  0.010023587  0.010675438  0.010994703
Length of the computed step             ....  0.367767585
Warning: the length of the step is outside the trust region - taking restricted step instead
The input lambda is                     ....    -0.024231
   iter:   1  x=   -0.035807  g=    3.909114 f(x)=     0.045253
   iter:   2  x=   -0.041829  g=    2.062784 f(x)=     0.012422
   iter:   3  x=   -0.042785  g=    1.589889 f(x)=     0.001521
   iter:   4  x=   -0.042804  g=    1.530633 f(x)=     0.000029
   iter:   5  x=   -0.042804  g=    1.529510 f(x)=     0.000000
   iter:   6  x=   -0.042804  g=    1.529509 f(x)=     0.000000
The output lambda is                    ....    -0.042804 (6 iterations)
The final length of the internal step   ....  0.300000000
Converting the step to cartesian space:
 Initial RMS(Int)=    0.0213741150
Transforming coordinates:
 Iter   0:  RMS(Cart)=    0.1472344612 RMS(Int)=    0.0208927746
 Iter   1:  RMS(Cart)=    0.0056114040 RMS(Int)=    0.0023044945
 Iter   2:  RMS(Cart)=    0.0004877329 RMS(Int)=    0.0000949840
 Iter   3:  RMS(Cart)=    0.0000395908 RMS(Int)=    0.0000180416
 Iter   4:  RMS(Cart)=    0.0000036588 RMS(Int)=    0.0000009655
 Iter   5:  RMS(Cart)=    0.0000003129 RMS(Int)=    0.0000001507
 Iter   6:  RMS(Cart)=    0.0000000294 RMS(Int)=    0.0000000097
done
Storing new coordinates                 .... done

                                .--------------------.
          ----------------------|Geometry convergence|-------------------------
          Item                value                   Tolerance       Converged
          ---------------------------------------------------------------------
          RMS gradient        0.0074398066            0.0001000000      NO
          MAX gradient        0.0552784631            0.0003000000      NO
          RMS step            0.0213741150            0.0020000000      NO
          MAX step            0.0763157096            0.0040000000      NO
          ........................................................
          Max(Bonds)      0.0291      Max(Angles)    2.78
          Max(Dihed)        4.37      Max(Improp)    0.00
          ---------------------------------------------------------------------

The optimization has not yet converged - more geometry cycles are needed


    ---------------------------------------------------------------------------
                         Redundant Internal Coordinates
                            (Angstroem and degrees)

        Definition                    Value    dE/dq     Step     New-Value
    ----------------------------------------------------------------------------
     1. B(C   1,C   0)                1.5362  0.004051 -0.0053    1.5310   
     2. B(O   2,C   1)                1.4414  0.017181 -0.0180    1.4234   
     3. B(C   3,C   1)                1.5359  0.007451 -0.0097    1.5263   
     4. B(O   4,C   3)                1.2242  0.034559 -0.0171    1.2072   
     5. B(O   5,C   3)                1.3483  0.009881 -0.0075    1.3408   
     6. B(C   6,C   1)                1.5633  0.013826 -0.0196    1.5437   
     7. B(O   7,C   6)                1.4495  0.027054 -0.0291    1.4204   
     8. B(C   8,C   6)                1.5440  0.007340 -0.0104    1.5336   
     9. B(O   9,C   8)                1.2287  0.055278 -0.0277    1.2009   
    10. B(O  10,C   8)                1.3599  0.013681 -0.0119    1.3480   
    11. B(C  11,O  10)                1.4406  0.009844 -0.0099    1.4307   
    12. B(C  12,C  11)                1.5333 -0.000474  0.0006    1.5339   
    13. B(O  13,C  12)                1.4203 -0.002152  0.0021    1.4224   
    14. B(P  14,O  13)                1.5969  0.003952 -0.0023    1.5946   
    15. B(O  15,P  14)                1.4850  0.028736 -0.0111    1.4739   
    16. B(O  16,P  14)                1.6030  0.000680 -0.0004    1.6026   
    17. B(O  17,P  14)                1.5925  0.005926 -0.0033    1.5892   
    18. B(C  18,C  11)                1.5245 -0.001357  0.0018    1.5263   
    19. B(O  19,C  18)                1.4345  0.010795 -0.0110    1.4235   
    20. B(C  20,C  18)                1.5253  0.001382  0.0004    1.5257   
    21. B(C  20,C   6)                1.5392  0.010885 -0.0148    1.5245   
    22. B(O  21,C  20)                1.4372  0.011473 -0.0118    1.4254   
    23. B(H  22,C   0)                1.0947  0.004680 -0.0062    1.0885   
    24. B(H  23,C   0)                1.0972  0.003898 -0.0052    1.0919   
    25. B(H  24,C   0)                1.0949  0.005139 -0.0069    1.0881   
    26. B(H  25,O   2)                0.9795  0.009846 -0.0099    0.9696   
    27. B(H  26,O   5)                0.9824  0.007277 -0.0074    0.9750   
    28. B(H  27,O   7)                0.9799  0.010231 -0.0103    0.9696   
    29. B(H  28,C  11)                1.0985 -0.001162  0.0016    1.1000   
    30. B(H  29,C  12)                1.0959  0.001789 -0.0024    1.0935   
    31. B(H  30,C  12)                1.0949  0.000837 -0.0011    1.0938   
    32. B(H  31,O  16)                0.9779  0.016467 -0.0165    0.9615   
    33. B(H  32,O  17)                0.9751  0.016310 -0.0161    0.9589   
    34. B(H  33,C  18)                1.0929 -0.001197  0.0016    1.0944   
    35. B(H  34,O  19)                0.9847  0.014510 -0.0148    0.9699   
    36. B(H  35,C  20)                1.0991 -0.001562  0.0021    1.1012   
    37. B(H  36,O  21)                0.9807  0.011346 -0.0114    0.9693   
    38. A(H  23,C   0,H  24)          105.82 -0.006166    1.27    107.08   
    39. A(C   1,C   0,H  22)          112.19  0.002546   -0.54    111.64   
    40. A(C   1,C   0,H  23)          110.64  0.004061   -0.50    110.14   
    41. A(H  22,C   0,H  24)          108.90 -0.002577    0.07    108.97   
    42. A(H  22,C   0,H  23)          107.50 -0.004212    0.82    108.32   
    43. A(C   1,C   0,H  24)          111.52  0.005450   -0.95    110.57   
    44. A(C   3,C   1,C   6)          112.15 -0.002228   -0.07    112.08   
    45. A(C   0,C   1,C   6)          113.56  0.004913   -1.08    112.48   
    46. A(C   0,C   1,C   3)          106.41 -0.001280    0.72    107.13   
    47. A(O   2,C   1,C   6)          110.64  0.005353   -1.63    109.01   
    48. A(C   0,C   1,O   2)          106.70 -0.008362    2.28    108.99   
    49. A(O   2,C   1,C   3)          106.98  0.000900    0.02    107.01   
    50. A(C   1,O   2,H  25)          106.91 -0.000181    0.03    106.94   
    51. A(O   4,C   3,O   5)          120.46 -0.007094    0.78    121.25   
    52. A(C   1,C   3,O   5)          114.82 -0.003921    0.51    115.33   
    53. A(C   1,C   3,O   4)          124.61  0.011078   -1.35    123.26   
    54. A(C   3,O   5,H  26)          103.73 -0.014554    2.03    105.76   
    55. A(O   7,C   6,C  20)          106.22 -0.006018    1.73    107.95   
    56. A(O   7,C   6,C   8)          107.92  0.004315   -0.69    107.23   
    57. A(C   1,C   6,O   7)          109.61 -0.003165    0.73    110.33   
    58. A(C   8,C   6,C  20)          108.87 -0.004300    1.07    109.94   
    59. A(C   1,C   6,C  20)          116.36  0.011305   -2.78    113.58   
    60. A(C   1,C   6,C   8)          107.59 -0.002320    0.04    107.63   
    61. A(C   6,O   7,H  27)          106.56 -0.001457    0.21    106.77   
    62. A(O   9,C   8,O  10)          119.56  0.000218   -0.10    119.46   
    63. A(C   6,C   8,O   9)          123.40  0.001501   -0.30    123.10   
    64. A(C   6,C   8,O  10)          116.84 -0.001684    0.35    117.19   
    65. A(C   8,O  10,C  11)          119.48 -0.004271    0.89    120.37   
    66. A(O  10,C  11,C  18)          111.68  0.002672   -0.20    111.48   
    67. A(C  12,C  11,C  18)          113.16 -0.009958    1.54    114.71   
    68. A(C  18,C  11,H  28)          110.10  0.004774   -0.89    109.21   
    69. A(O  10,C  11,H  28)          106.64 -0.003408    0.58    107.22   
    70. A(C  12,C  11,H  28)          106.37 -0.000510    0.55    106.92   
    71. A(O  10,C  11,C  12)          108.55  0.006626   -1.60    106.95   
    72. A(H  29,C  12,H  30)          107.99 -0.002467    0.33    108.31   
    73. A(O  13,C  12,H  30)          107.42  0.001249   -0.50    106.92   
    74. A(C  11,C  12,H  30)          110.48  0.007405   -1.64    108.84   
    75. A(O  13,C  12,H  29)          110.34  0.000640    0.47    110.81   
    76. A(C  11,C  12,H  29)          109.85 -0.000318    0.37    110.23   
    77. A(C  11,C  12,O  13)          110.70 -0.006326    0.93    111.63   
    78. A(C  12,O  13,P  14)          117.56 -0.011599    1.30    118.85   
    79. A(O  16,P  14,O  17)          101.39 -0.000100    0.11    101.50   
    80. A(O  15,P  14,O  17)          114.98 -0.003469    0.33    115.31   
    81. A(O  13,P  14,O  17)          103.12  0.003519   -0.42    102.70   
    82. A(O  15,P  14,O  16)          114.33  0.002598   -0.24    114.09   
    83. A(O  13,P  14,O  16)          103.40 -0.005779    0.69    104.09   
    84. A(O  13,P  14,O  15)          117.58  0.002745   -0.39    117.19   
    85. A(P  14,O  16,H  31)          108.97 -0.000214    0.03    108.99   
    86. A(P  14,O  17,H  32)          111.37  0.001064   -0.13    111.24   
    87. A(C  20,C  18,H  33)          109.97 -0.000078   -0.10    109.87   
    88. A(O  19,C  18,H  33)          106.70 -0.005484    1.90    108.60   
    89. A(C  11,C  18,H  33)          113.15  0.003739   -0.97    112.18   
    90. A(C  11,C  18,O  19)          111.51 -0.001743    0.19    111.69   
    91. A(O  19,C  18,C  20)          108.14  0.004296   -1.28    106.85   
    92. A(C  11,C  18,C  20)          107.29 -0.000568    0.21    107.49   
    93. A(C  18,O  19,H  34)          106.08 -0.004824    0.71    106.79   
    94. A(O  21,C  20,H  35)          104.35 -0.004378    1.96    106.31   
    95. A(C  18,C  20,H  35)          108.93  0.000202    0.31    109.24   
    96. A(C   6,C  20,H  35)          108.91 -0.000615   -0.32    108.59   
    97. A(C  18,C  20,O  21)          109.18 -0.007039    0.82    110.00   
    98. A(C   6,C  20,O  21)          112.03  0.006651   -1.75    110.27   
    99. A(C   6,C  20,C  18)          113.04  0.004398   -0.76    112.28   
   100. A(C  20,O  21,H  36)          104.79 -0.001169    0.17    104.96   
   101. D(O   2,C   1,C   0,H  23)     63.19 -0.002747    0.99     64.18   
   102. D(C   6,C   1,C   0,H  23)   -174.64  0.001197   -0.14   -174.78   
   103. D(C   6,C   1,C   0,H  22)    -54.60  0.000348    0.21    -54.40   
   104. D(C   3,C   1,C   0,H  23)    -50.78  0.000626   -0.41    -51.18   
   105. D(O   2,C   1,C   0,H  24)    -54.30 -0.001099    0.33    -53.97   
   106. D(C   3,C   1,C   0,H  24)   -168.27  0.002274   -1.07   -169.34   
   107. D(C   3,C   1,C   0,H  22)     69.26 -0.000223   -0.06     69.20   
   108. D(C   6,C   1,C   0,H  24)     67.86  0.002845   -0.80     67.07   
   109. D(O   2,C   1,C   0,H  22)   -176.77 -0.003596    1.34   -175.43   
   110. D(H  25,O   2,C   1,C   6)    158.03  0.000417   -1.37    156.66   
   111. D(H  25,O   2,C   1,C   3)     35.60 -0.000646   -0.31     35.29   
   112. D(H  25,O   2,C   1,C   0)    -77.98  0.004284   -2.21    -80.19   
   113. D(O   4,C   3,C   1,C   0)    103.55 -0.004040    0.72    104.27   
   114. D(O   4,C   3,C   1,C   6)   -131.71 -0.000195   -0.18   -131.89   
   115. D(O   5,C   3,C   1,C   6)     52.04 -0.000984    0.75     52.79   
   116. D(O   5,C   3,C   1,C   0)    -72.70 -0.004830    1.66    -71.04   
   117. D(O   4,C   3,C   1,O   2)    -10.23  0.005682   -2.23    -12.46   
   118. D(O   5,C   3,C   1,O   2)    173.52  0.004892   -1.30    172.23   
   119. D(H  26,O   5,C   3,O   4)      5.22 -0.000382    0.21      5.42   
   120. D(H  26,O   5,C   3,C   1)   -178.36  0.001111   -0.77   -179.13   
   121. D(C  20,C   6,C   1,C   3)     56.30  0.001291   -1.28     55.02   
   122. D(C  20,C   6,C   1,O   2)    -63.06 -0.002011   -0.16    -63.22   
   123. D(C  20,C   6,C   1,C   0)    176.98  0.001538   -1.18    175.80   
   124. D(C   8,C   6,C   1,C   3)    178.70  0.001621   -1.77    176.93   
   125. D(C   8,C   6,C   1,C   0)    -60.62  0.001868   -1.66    -62.28   
   126. D(O   7,C   6,C   1,C   0)     56.48  0.003995   -2.07     54.41   
   127. D(O   7,C   6,C   1,O   2)    176.44  0.000446   -1.05    175.39   
   128. D(C   8,C   6,C   1,O   2)     59.34 -0.001681   -0.64     58.70   
   129. D(O   7,C   6,C   1,C   3)    -64.20  0.003747   -2.17    -66.38   
   130. D(H  27,O   7,C   6,C   8)    175.89  0.001277   -0.56    175.33   
   131. D(H  27,O   7,C   6,C   1)     59.00  0.003332   -0.61     58.38   
   132. D(H  27,O   7,C   6,C  20)    -67.49 -0.004656    1.22    -66.27   
   133. D(O  10,C   8,C   6,C  20)     41.09  0.004966   -1.74     39.35   
   134. D(O  10,C   8,C   6,C   1)    -85.82 -0.004726    0.99    -84.84   
   135. D(O   9,C   8,C   6,C  20)   -144.01  0.005424   -2.46   -146.47   
   136. D(O   9,C   8,C   6,O   7)    -29.13 -0.001593   -0.24    -29.37   
   137. D(O  10,C   8,C   6,O   7)    155.98 -0.002051    0.48    156.46   
   138. D(O   9,C   8,C   6,C   1)     89.07 -0.004268    0.27     89.34   
   139. D(C  11,O  10,C   8,O   9)    141.50 -0.006974    3.32    144.81   
   140. D(C  11,O  10,C   8,C   6)    -43.41 -0.006460    2.61    -40.79   
   141. D(H  28,C  11,O  10,C   8)    -69.77 -0.001478   -0.88    -70.65   
   142. D(C  18,C  11,O  10,C   8)     50.54  0.003737   -1.71     48.83   
   143. D(C  12,C  11,O  10,C   8)    175.98 -0.002348   -1.04    174.95   
   144. D(H  30,C  12,C  11,H  28)    -71.62 -0.000195    0.54    -71.09   
   145. D(H  30,C  12,C  11,C  18)    167.36  0.000194    0.34    167.71   
   146. D(H  30,C  12,C  11,O  10)     42.80 -0.001246    0.72     43.52   
   147. D(H  29,C  12,C  11,H  28)     47.41  0.001152    0.16     47.57   
   148. D(H  29,C  12,C  11,C  18)    -73.61  0.001542   -0.04    -73.64   
   149. D(O  13,C  12,C  11,O  10)    -76.07 -0.003502    1.80    -74.27   
   150. D(O  13,C  12,C  11,C  18)     48.49 -0.002062    1.42     49.92   
   151. D(O  13,C  12,C  11,H  28)    169.51 -0.002452    1.61    171.13   
   152. D(H  29,C  12,C  11,O  10)    161.83  0.000102    0.34    162.17   
   153. D(P  14,O  13,C  12,H  30)    112.08  0.000965   -2.61    109.47   
   154. D(P  14,O  13,C  12,H  29)     -5.41  0.002845   -2.96     -8.37   
   155. D(P  14,O  13,C  12,C  11)   -127.23  0.007057   -4.37   -131.60   
   156. D(O  17,P  14,O  13,C  12)    170.83 -0.002252    2.06    172.89   
   157. D(O  16,P  14,O  13,C  12)     65.52 -0.001465    1.87     67.39   
   158. D(O  15,P  14,O  13,C  12)    -61.52 -0.001985    1.88    -59.64   
   159. D(H  31,O  16,P  14,O  17)     71.00 -0.002366    0.91     71.91   
   160. D(H  31,O  16,P  14,O  15)    -53.32  0.000529    0.57    -52.76   
   161. D(H  31,O  16,P  14,O  13)    177.62 -0.000273    0.69    178.31   
   162. D(H  32,O  17,P  14,O  15)    -54.32 -0.001173    0.44    -53.88   
   163. D(H  32,O  17,P  14,O  13)     74.95  0.002808   -0.16     74.79   
   164. D(H  32,O  17,P  14,O  16)   -178.21 -0.002386    0.48   -177.72   
   165. D(H  33,C  18,C  11,H  28)   -175.40  0.002520   -0.40   -175.80   
   166. D(H  33,C  18,C  11,C  12)    -56.51 -0.001342    0.69    -55.82   
   167. D(H  33,C  18,C  11,O  10)     66.34  0.001993   -0.42     65.92   
   168. D(C  20,C  18,C  11,H  28)     63.13  0.000668    0.19     63.31   
   169. D(C  20,C  18,C  11,C  12)   -177.99 -0.003194    1.28   -176.71   
   170. D(C  20,C  18,C  11,O  10)    -55.14  0.000141    0.17    -54.97   
   171. D(O  19,C  18,C  11,H  28)    -55.10 -0.003215    1.51    -53.59   
   172. D(O  19,C  18,C  11,C  12)     63.78 -0.007077    2.61     66.39   
   173. D(O  19,C  18,C  11,O  10)   -173.37 -0.003742    1.50   -171.87   
   174. D(H  34,O  19,C  18,H  33)     39.27 -0.000249    0.42     39.69   
   175. D(H  34,O  19,C  18,C  20)    157.53 -0.001045    0.66    158.19   
   176. D(H  34,O  19,C  18,C  11)    -84.75 -0.000092    0.23    -84.52   
   177. D(H  35,C  20,C  18,H  33)    173.51 -0.006454    1.92    175.43   
   178. D(H  35,C  20,C  18,O  19)     57.36 -0.002291    0.42     57.78   
   179. D(H  35,C  20,C  18,C  11)    -63.04 -0.002275    0.80    -62.24   
   180. D(O  21,C  20,C  18,O  19)    -56.02  0.006463   -2.48    -58.50   
   181. D(O  21,C  20,C  18,C  11)   -176.41  0.006479   -2.11   -178.52   
   182. D(C   6,C  20,C  18,H  33)    -65.28 -0.004196    1.23    -64.05   
   183. D(C   6,C  20,C  18,O  19)    178.57 -0.000033   -0.26    178.30   
   184. D(C   6,C  20,C  18,C  11)     58.17 -0.000017    0.11     58.28   
   185. D(H  35,C  20,C   6,C   8)     71.11  0.000166    0.22     71.33   
   186. D(H  35,C  20,C   6,O   7)    -44.87  0.000389   -0.40    -45.27   
   187. D(H  35,C  20,C   6,C   1)   -167.17  0.001692   -0.84   -168.01   
   188. D(O  21,C  20,C   6,C   8)   -173.97 -0.001777    1.42   -172.56   
   189. D(O  21,C  20,C   6,O   7)     70.04 -0.001553    0.80     70.84   
   190. D(O  21,C  20,C  18,H  33)     60.13  0.002300   -0.99     59.15   
   191. D(O  21,C  20,C   6,C   1)    -52.25 -0.000251    0.35    -51.90   
   192. D(C  18,C  20,C   6,C   8)    -50.11 -0.002553    0.55    -49.56   
   193. D(C  18,C  20,C   6,O   7)   -166.09 -0.002330   -0.07   -166.16   
   194. D(C  18,C  20,C   6,C   1)     71.61 -0.001027   -0.51     71.10   
   195. D(H  36,O  21,C  20,H  35)    -70.40  0.002331   -1.17    -71.57   
   196. D(H  36,O  21,C  20,C  18)     45.93 -0.002911    0.57     46.50   
   197. D(H  36,O  21,C  20,C   6)    171.93  0.002318   -1.06    170.86   
    ----------------------------------------------------------------------------

         *************************************************************
         *                GEOMETRY OPTIMIZATION CYCLE   2            *
         *************************************************************
---------------------------------
CARTESIAN COORDINATES (ANGSTROEM)
---------------------------------
  C    -2.584356   -1.042846    2.164884
  C    -1.878069   -0.283650    1.038537
  O    -0.623777    0.190829    1.515801
  C    -2.727898    0.944159    0.722608
  O    -2.432918    2.061269    1.072378
  O    -3.891463    0.693089    0.105529
  C    -1.642010   -1.162436   -0.208448
  O    -2.864794   -1.737609   -0.646170
  C    -0.719945   -2.316464    0.204132
  O    -1.128693   -3.361870    0.631097
  O     0.607163   -2.081217    0.185913
  C     1.193049   -1.328004   -0.879940
  C     2.674918   -1.138326   -0.532017
  O     2.851849   -0.176171    0.500476
  P     3.937001    0.975185    0.301669
  O     5.335598    0.555321    0.101475
  O     3.344890    1.867785   -0.890395
  O     3.683067    1.915284    1.557556
  C     0.426918   -0.032999   -1.135700
  O     0.888287    0.628406   -2.308762
  C    -1.032244   -0.404469   -1.382249
  O    -1.792559    0.768438   -1.661484
  H    -3.514144   -1.494003    1.823290
  H    -2.814435   -0.364413    2.988945
  H    -1.938695   -1.822606    2.563573
  H    -0.801759    0.996442    2.025243
  H    -4.307542    1.562844   -0.039311
  H    -3.468309   -1.002384   -0.834257
  H     1.153830   -1.955839   -1.782348
  H     3.239874   -0.857576   -1.425216
  H     3.073643   -2.085214   -0.156667
  H     3.938260    2.606731   -1.052466
  H     4.025196    1.520579    2.361750
  H     0.496764    0.661594   -0.292807
  H     1.656457    1.159609   -2.047125
  H    -1.098453   -1.037022   -2.281228
  H    -1.264699    1.260754   -2.308363

----------------------------
CARTESIAN COORDINATES (A.U.)
----------------------------
  NO LB    ZA    FRAG    MASS        X           Y           Z
   0 C   6.0000    0    12.011   -4.883725   -1.970693    4.091038
   1 C   6.0000    0    12.011   -3.549036   -0.536022    1.962550
   2 O   8.0000    0    15.999   -1.178768    0.360615    2.864449
   3 C   6.0000    0    12.011   -5.154980    1.784202    1.365532
   4 O   8.0000    0    15.999   -4.597548    3.895233    2.026500
   5 O   8.0000    0    15.999   -7.353799    1.309748    0.199421
   6 C   6.0000    0    12.011   -3.102949   -2.196686   -0.393910
   7 O   8.0000    0    15.999   -5.413676   -3.283605   -1.221085
   8 C   6.0000    0    12.011   -1.360498   -4.377483    0.385754
   9 O   8.0000    0    15.999   -2.132921   -6.353013    1.192601
  10 O   8.0000    0    15.999    1.147371   -3.932931    0.351324
  11 C   6.0000    0    12.011    2.254537   -2.509563   -1.662846
  12 C   6.0000    0    12.011    5.054862   -2.151125   -1.005366
  13 O   8.0000    0    15.999    5.389213   -0.332916    0.945762
  14 P  15.0000    0    30.974    7.439853    1.842832    0.570071
  15 O   8.0000    0    15.999   10.082818    1.049404    0.191759
  16 O   8.0000    0    15.999    6.320926    3.529603   -1.682602
  17 O   8.0000    0    15.999    6.959988    3.619363    2.943354
  18 C   6.0000    0    12.011    0.806757   -0.062358   -2.146162
  19 O   8.0000    0    15.999    1.678618    1.187516   -4.362928
  20 C   6.0000    0    12.011   -1.950658   -0.764336   -2.612072
  21 O   8.0000    0    15.999   -3.387446    1.452138   -3.139749
  22 H   1.0000    0     1.008   -6.640769   -2.823256    3.445519
  23 H   1.0000    0     1.008   -5.318512   -0.688641    5.648287
  24 H   1.0000    0     1.008   -3.663602   -3.444226    4.844450
  25 H   1.0000    0     1.008   -1.515104    1.883002    3.827155
  26 H   1.0000    0     1.008   -8.140075    2.953347   -0.074287
  27 H   1.0000    0     1.008   -6.554154   -1.894231   -1.576517
  28 H   1.0000    0     1.008    2.180422   -3.696001   -3.368149
  29 H   1.0000    0     1.008    6.122475   -1.620584   -2.693267
  30 H   1.0000    0     1.008    5.808344   -3.940483   -0.296059
  31 H   1.0000    0     1.008    7.442232    4.926008   -1.988873
  32 H   1.0000    0     1.008    7.606518    2.873478    4.463060
  33 H   1.0000    0     1.008    0.938747    1.250231   -0.553325
  34 H   1.0000    0     1.008    3.130250    2.191343   -3.868506
  35 H   1.0000    0     1.008   -2.075776   -1.959687   -4.310897
  36 H   1.0000    0     1.008   -2.389935    2.382479   -4.362175

      -----------------------------------------------------------      
     |                   =====================                   |     
     |                           x T B                           |     
     |                   =====================                   |     
     |                         S. Grimme                         |     
     |          Mulliken Center for Theoretical Chemistry        |     
     |                    University of Bonn                     |     
      -----------------------------------------------------------      

   * xtb version 6.5.1 (579679a) compiled by 'ehlert@majestix' on 2022-07-11

   xtb is free software: you can redistribute it and/or modify it under
   the terms of the GNU Lesser General Public License as published by
   the Free Software Foundation, either version 3 of the License, or
   (at your option) any later version.
   
   xtb is distributed in the hope that it will be useful,
   but WITHOUT ANY WARRANTY; without even the implied warranty of
   MERCHANTABILITY or FITNESS FOR A PARTICULAR PURPOSE.  See the
   GNU Lesser General Public License for more details.
   
   Cite this work as:
   * C. Bannwarth, E. Caldeweyher, S. Ehlert, A. Hansen, P. Pracht,
     J. Seibert, S. Spicher, S. Grimme, WIREs Comput. Mol. Sci., 2020, 11,
     e01493. DOI: 10.1002/wcms.1493
   
   for GFN2-xTB:
   * C. Bannwarth, S. Ehlert and S. Grimme., J. Chem. Theory Comput., 2019,
     15, 1652-1671. DOI: 10.1021/acs.jctc.8b01176
   for GFN1-xTB:
   * S. Grimme, C. Bannwarth, P. Shushkov, J. Chem. Theory Comput., 2017,
     13, 1989-2009. DOI: 10.1021/acs.jctc.7b00118
   for GFN0-xTB:
   * P. Pracht, E. Caldeweyher, S. Ehlert, S. Grimme, ChemRxiv, 2019, preprint.
     DOI: 10.26434/chemrxiv.8326202.v1
   for GFN-FF:
   * S. Spicher and S. Grimme, Angew. Chem. Int. Ed., 2020, 59, 15665-15673.
     DOI: 10.1002/anie.202004239
   
   for ALPB and GBSA implicit solvation:
   * S. Ehlert, M. Stahn, S. Spicher, S. Grimme, J. Chem. Theory Comput.,
     2021, 17, 4250-4261. DOI: 10.1021/acs.jctc.1c00471
   
   for DFT-D4:
   * E. Caldeweyher, C. Bannwarth and S. Grimme, J. Chem. Phys., 2017,
     147, 034112. DOI: 10.1063/1.4993215
   * E. Caldeweyher, S. Ehlert, A. Hansen, H. Neugebauer, S. Spicher,
     C. Bannwarth and S. Grimme, J. Chem. Phys., 2019, 150, 154122.
     DOI: 10.1063/1.5090222
   * E. Caldeweyher, J.-M. Mewes, S. Ehlert and S. Grimme, Phys. Chem. Chem. Phys.
     2020, 22, 8499-8512. DOI: 10.1039/D0CP00502A
   
   for sTDA-xTB:
   * S. Grimme and C. Bannwarth, J. Chem. Phys., 2016, 145, 054103.
     DOI: 10.1063/1.4959605
   
   in the mass-spec context:
   * V. Asgeirsson, C. Bauer and S. Grimme, Chem. Sci., 2017, 8, 4879.
     DOI: 10.1039/c7sc00601b
   * J. Koopman and S. Grimme, ACS Omega 2019, 4, 12, 15120-15133.
     DOI: 10.1021/acsomega.9b02011
   
   for metadynamics refer to:
   * S. Grimme, J. Chem. Theory Comput., 2019, 155, 2847-2862
     DOI: 10.1021/acs.jctc.9b00143
   
   for SPH calculations refer to:
   * S. Spicher and S. Grimme, J. Chem. Theory Comput., 2021, 17, 1701-1714
     DOI: 10.1021/acs.jctc.0c01306
   
   with help from (in alphabetical order)
   P. Atkinson, C. Bannwarth, F. Bohle, G. Brandenburg, E. Caldeweyher
   M. Checinski, S. Dohm, S. Ehlert, S. Ehrlich, I. Gerasimov, C. Hölzer
   A. Katbashev, J. Koopman, C. Lavigne, S. Lehtola, F. März, M. Müller,
   F. Musil, H. Neugebauer, J. Pisarek, C. Plett, P. Pracht, F. Pultar,
   J. Seibert, P. Shushkov, S. Spicher, M. Stahn, M. Steiner, T. Strunk,
   J. Stückrath, T. Rose, and J. Unsleber
   
 * started run on 2023/12/06 at 21:07:23.287     

           -------------------------------------------------
          |                Calculation Setup                |
           -------------------------------------------------

          program call               : otool_xtb /tmp/21_XTB.xyz --grad -c 0 -u 0 -P 1 --namespace /tmp/21 --input /tmp/21_XTB.input.tmp --acc 1.000000
          calculation namespace      : /tmp/21
          coordinate file            : /tmp/21_XTB.xyz
          omp threads                :                     1

   ID    Z sym.   atoms
    1    6 C      1, 2, 4, 7, 9, 12, 13, 19, 21
    2    8 O      3, 5, 6, 8, 10, 11, 14, 16-18, 20, 22
    3   15 P      15
    4    1 H      23-37

           -------------------------------------------------
          |                 G F N 2 - x T B                 |
           -------------------------------------------------

        Reference                      10.1021/acs.jctc.8b01176
      * Hamiltonian:
        H0-scaling (s, p, d)           1.850000    2.230000    2.230000
        zeta-weighting                 0.500000
      * Dispersion:
        s8                             2.700000
        a1                             0.520000
        a2                             5.000000
        s9                             5.000000
      * Repulsion:
        kExp                           1.500000    1.000000
        rExp                           1.000000
      * Coulomb:
        alpha                          2.000000
        third order                    shell-resolved
        anisotropic                    true
        a3                             3.000000
        a5                             4.000000
        cn-shift                       1.200000
        cn-exp                         4.000000
        max-rad                        5.000000

q/qsh data taken from xtbrestart
CAMM data taken from xtbrestart

          ...................................................
          :                      SETUP                      :
          :.................................................:
          :  # basis functions                 109          :
          :  # atomic orbitals                 108          :
          :  # shells                           60          :
          :  # electrons                       128          :
          :  max. iterations                   250          :
          :  Hamiltonian                  GFN2-xTB          :
          :  restarted?                       true          :
          :  GBSA solvation                  false          :
          :  PC potential                    false          :
          :  electronic temp.          300.0000000     K    :
          :  accuracy                    1.0000000          :
          :  -> integral cutoff          0.2500000E+02      :
          :  -> integral neglect         0.1000000E-07      :
          :  -> SCF convergence          0.1000000E-05 Eh   :
          :  -> wf. convergence          0.1000000E-03 e    :
          :  Broyden damping             0.4000000          :
          ...................................................

 iter      E             dE          RMSdq      gap      omega  full diag
   1    -78.9473607 -0.789474E+02  0.354E-01    4.19       0.0  T
   2    -78.9475494 -0.188711E-03  0.209E-01    4.16       1.0  T
   3    -78.9475126  0.367518E-04  0.686E-02    4.20       1.0  T
   4    -78.9475888 -0.762065E-04  0.136E-02    4.18       1.2  T
   5    -78.9475898 -0.100974E-05  0.586E-03    4.18       2.8  T
   6    -78.9475899 -0.875573E-07  0.242E-03    4.18       6.8  T
   7    -78.9475899 -0.340819E-07  0.105E-03    4.18      15.6  T
   8    -78.9475900 -0.688262E-08  0.260E-04    4.18      63.2  T
   9    -78.9475900 -0.370505E-09  0.107E-04    4.18     154.0  T

   *** convergence criteria satisfied after 9 iterations ***

         #    Occupation            Energy/Eh            Energy/eV
      -------------------------------------------------------------
         1        2.0000           -0.7663077             -20.8523
       ...           ...                  ...                  ...
        58        2.0000           -0.4510203             -12.2729
        59        2.0000           -0.4477646             -12.1843
        60        2.0000           -0.4441984             -12.0873
        61        2.0000           -0.4375213             -11.9056
        62        2.0000           -0.4349590             -11.8358
        63        2.0000           -0.4254150             -11.5761
        64        2.0000           -0.4185361             -11.3889 (HOMO)
        65                         -0.2648482              -7.2069 (LUMO)
        66                         -0.2519839              -6.8568
        67                         -0.0917669              -2.4971
        68                         -0.0706065              -1.9213
        69                         -0.0522434              -1.4216
       ...                                ...                  ...
       108                          1.2044719              32.7753
      -------------------------------------------------------------
                  HL-Gap            0.1536878 Eh            4.1821 eV
             Fermi-level           -0.3416922 Eh           -9.2979 eV

 SCC (total)                   0 d,  0 h,  0 min,  0.054 sec
 SCC setup                      ...        0 min,  0.000 sec (  0.538%)
 Dispersion                     ...        0 min,  0.000 sec (  0.662%)
 classical contributions        ...        0 min,  0.000 sec (  0.142%)
 integral evaluation            ...        0 min,  0.009 sec ( 16.095%)
 iterations                     ...        0 min,  0.018 sec ( 33.349%)
 molecular gradient             ...        0 min,  0.026 sec ( 48.736%)
 printout                       ...        0 min,  0.000 sec (  0.443%)

         :::::::::::::::::::::::::::::::::::::::::::::::::::::
         ::                     SUMMARY                     ::
         :::::::::::::::::::::::::::::::::::::::::::::::::::::
         :: total energy             -78.403002708896 Eh    ::
         :: gradient norm              0.056196774079 Eh/a0 ::
         :: HOMO-LUMO gap              4.182058967683 eV    ::
         ::.................................................::
         :: SCC energy               -78.947589954586 Eh    ::
         :: -> isotropic ES            0.288487211543 Eh    ::
         :: -> anisotropic ES         -0.006839115644 Eh    ::
         :: -> anisotropic XC         -0.010509598504 Eh    ::
         :: -> dispersion             -0.041044327354 Eh    ::
         :: repulsion energy           0.543752834957 Eh    ::
         :: add. restraining           0.000000000000 Eh    ::
         :: total charge               0.000000000000 e     ::
         :::::::::::::::::::::::::::::::::::::::::::::::::::::


Property printout bound to 'properties.out'

           -------------------------------------------------
          | TOTAL ENERGY              -78.403002708896 Eh   |
          | GRADIENT NORM               0.056196774079 Eh/α |
          | HOMO-LUMO GAP               4.182058967683 eV   |
           -------------------------------------------------

------------------------------------------------------------------------
 * finished run on 2023/12/06 at 21:07:23.357     
------------------------------------------------------------------------
 total:
 * wall-time:     0 d,  0 h,  0 min,  0.070 sec
 *  cpu-time:     0 d,  0 h,  0 min,  0.068 sec
 * ratio c/w:     0.978 speedup
 SCF:
 * wall-time:     0 d,  0 h,  0 min,  0.054 sec
 *  cpu-time:     0 d,  0 h,  0 min,  0.056 sec
 * ratio c/w:     1.029 speedup


-------------------------   --------------------
FINAL SINGLE POINT ENERGY       -78.403002708900
-------------------------   --------------------

------------------------------------------------------------------------------
                         ORCA GEOMETRY RELAXATION STEP
------------------------------------------------------------------------------

Reading the OPT-File                    .... done
Getting information on internals        .... done
Copying old internal coords+grads       .... done
Making the new internal coordinates     .... (new redundants).... done
Validating the new internal coordinates .... (new redundants).... done
Calculating the B-matrix                .... done
Calculating the G,G- and P matrices     .... done
Transforming gradient to internals      .... done
Projecting the internal gradient        .... done
Number of atoms                         ....  37
Number of internal coordinates          .... 197
Current Energy                          ....   -78.403002709 Eh
Current gradient norm                   ....     0.056196774 Eh/bohr
Maximum allowed component of the step   ....  0.300
Current trust radius                    ....  0.300
Updating the Hessian (BFGS)             .... done
Forming the augmented Hessian           .... done
Diagonalizing the augmented Hessian     .... done
Last element of RFO vector              ....  0.912140912
Lowest eigenvalues of augmented Hessian:
 -0.010828611  0.009173549  0.010060384  0.010675835  0.011130987
Length of the computed step             ....  0.449356841
Warning: the length of the step is outside the trust region - taking restricted step instead
The input lambda is                     ....    -0.010829
   iter:   1  x=   -0.019470  g=   12.951314 f(x)=     0.111922
   iter:   2  x=   -0.026063  g=    5.683761 f(x)=     0.037471
   iter:   3  x=   -0.028306  g=    3.527804 f(x)=     0.007913
   iter:   4  x=   -0.028483  g=    3.060645 f(x)=     0.000542
   iter:   5  x=   -0.028484  g=    3.027642 f(x)=     0.000003
   iter:   6  x=   -0.028484  g=    3.027463 f(x)=     0.000000
   iter:   7  x=   -0.028484  g=    3.027463 f(x)=     0.000000
The output lambda is                    ....    -0.028484 (7 iterations)
The final length of the internal step   ....  0.300000000
Converting the step to cartesian space:
 Initial RMS(Int)=    0.0213741150
Transforming coordinates:
 Iter   0:  RMS(Cart)=    0.1126105148 RMS(Int)=    0.6309139506
 Iter   1:  RMS(Cart)=    0.0037477965 RMS(Int)=    0.0016753782
 Iter   2:  RMS(Cart)=    0.0002885998 RMS(Int)=    0.0000570411
 Iter   3:  RMS(Cart)=    0.0000245825 RMS(Int)=    0.0000119570
 Iter   4:  RMS(Cart)=    0.0000020383 RMS(Int)=    0.0000005027
 Iter   5:  RMS(Cart)=    0.0000001812 RMS(Int)=    0.0000000894
 Iter   6:  RMS(Cart)=    0.0000000155 RMS(Int)=    0.0000000048
[...]
     87      -0.000118   0.000060   0.000114
     88      -0.000095  -0.000009   0.000461
     89       0.000051  -0.000581   0.000233
     90       0.000135   0.000391   0.000132
     91      -0.000144  -0.000975  -0.000158
     92       0.000040  -0.000300  -0.000013
     93      -0.000038   0.220574   0.004336
     94      -0.000117   0.518670   0.008332
     95      -0.000073  -0.823453  -0.014975
     96       0.000325   0.014554  -0.817289
     97      -0.000010   0.000558  -0.057576
     98      -0.000276  -0.010781   0.569585
     99       0.000123   0.000796  -0.000010
    100       0.000193   0.000506   0.000108
    101       0.000219   0.001746   0.000020
    102      -0.002729   0.003229   0.006461
    103      -0.002041   0.002083   0.004179
    104      -0.000859   0.001466   0.002677
    105      -0.000611  -0.000110   0.000052
    106       0.001393  -0.000114  -0.000066
    107       0.001126  -0.000058  -0.000023
    108       0.020309   0.000255   0.000306
    109       0.017689   0.000091   0.000180
    110      -0.018992   0.000105  -0.000151


-----------
IR SPECTRUM
-----------

 Mode   freq       eps      Int      T**2         TX        TY        TZ
       cm**-1   L/(mol*cm) km/mol    a.u.
----------------------------------------------------------------------------
  6:     36.20   0.000499    2.52  0.004301  (-0.010492 -0.057745 -0.029261)
  7:     49.30   0.000340    1.72  0.002153  (-0.021151 -0.003807 -0.041121)
  8:     65.16   0.000075    0.38  0.000357  (-0.015700  0.000029  0.010510)
  9:     69.54   0.000122    0.62  0.000548  ( 0.020225  0.010760 -0.004780)
 10:     84.98   0.000123    0.62  0.000450  ( 0.010251  0.015076  0.010840)
 11:     96.13   0.000442    2.23  0.001434  (-0.008216  0.013161  0.034551)
 12:    133.18   0.001095    5.53  0.002565  ( 0.037486  0.029077  0.017741)
 13:    145.30   0.000166    0.84  0.000357  ( 0.017937 -0.003038  0.005116)
 14:    151.94   0.001483    7.50  0.003047  ( 0.033105 -0.034306  0.027823)
 15:    162.63   0.000461    2.33  0.000885  (-0.012120 -0.008108 -0.025922)
 16:    170.95   0.000397    2.01  0.000726  (-0.004038  0.005841  0.025984)
 17:    180.17   0.008397   42.44  0.014545  ( 0.092904 -0.044925  0.062412)
 18:    182.29   0.010116   51.12  0.017317  (-0.077175  0.023323 -0.104007)
 19:    194.62   0.003473   17.55  0.005569  (-0.036083  0.037082 -0.053774)
 20:    203.32   0.000184    0.93  0.000282  (-0.003791 -0.011820  0.011329)
 21:    247.68   0.021978  111.07  0.027690  ( 0.073771  0.131471  0.070453)
 22:    254.74   0.008135   41.11  0.009966  (-0.022725 -0.095818 -0.016374)
 23:    264.11   0.003784   19.12  0.004471  ( 0.030247  0.038010  0.045952)
 24:    275.13   0.000795    4.02  0.000901  (-0.024747 -0.016219 -0.005070)
 25:    279.54   0.004907   24.80  0.005478  (-0.011318 -0.073069 -0.003225)
 26:    292.13   0.002981   15.06  0.003184  ( 0.024356 -0.040151 -0.031282)
 27:    312.81   0.002617   13.23  0.002611  ( 0.003778 -0.001943  0.050920)
 28:    318.05   0.004609   23.29  0.004522  (-0.061587  0.026011 -0.007258)
 29:    345.03   0.000934    4.72  0.000844  (-0.022031 -0.011458 -0.015089)
 30:    355.24   0.005335   26.96  0.004687  ( 0.056863  0.026763  0.027151)
 31:    361.32   0.001265    6.39  0.001093  (-0.031561 -0.002862 -0.009409)
 32:    376.95   0.001760    8.90  0.001457  (-0.002840  0.033047 -0.018895)
 33:    391.63   0.005521   27.90  0.004399  (-0.025814 -0.060847 -0.005504)
 34:    407.02   0.009567   48.35  0.007335  (-0.064124 -0.025224 -0.050863)
 35:    414.22   0.003725   18.82  0.002806  ( 0.023007  0.020626 -0.043030)
 36:    418.76   0.018919   95.61  0.014099  (-0.116436 -0.022740 -0.004908)
 37:    425.81   0.004063   20.53  0.002978  ( 0.024488  0.047231 -0.012148)
 38:    447.70   0.011243   56.82  0.007837  ( 0.015992  0.059697  0.063383)
 39:    453.08   0.027188  137.40  0.018726  ( 0.010067 -0.033041 -0.132412)
 40:    478.58   0.016990   85.86  0.011078  (-0.072469 -0.060843 -0.046094)
 41:    493.79   0.006921   34.98  0.004374  ( 0.056029 -0.004700 -0.034824)
 42:    524.33   0.002079   10.51  0.001237  (-0.012003  0.013565  0.030156)
 43:    544.24   0.003634   18.37  0.002084  ( 0.030805 -0.030811  0.013624)
 44:    555.90   0.000590    2.98  0.000331  ( 0.012814  0.007862  0.010256)
 45:    584.15   0.020143  101.79  0.010761  (-0.021678  0.010138  0.100935)
 46:    620.63   0.005111   25.83  0.002570  (-0.031760  0.030683 -0.024897)
 47:    649.94   0.029260  147.87  0.014049  (-0.081348  0.072707  0.046317)
 48:    664.74   0.003465   17.51  0.001627  ( 0.014212 -0.031431 -0.020900)
 49:    672.15   0.014162   71.57  0.006575  (-0.068324  0.000572  0.043664)
 50:    691.97   0.008531   43.11  0.003847  (-0.061181 -0.003669  0.009514)
 51:    713.36   0.024766  125.16  0.010834  ( 0.013939 -0.072785 -0.073088)
 52:    734.05   0.027290  137.91  0.011602  (-0.031708 -0.081518  0.062859)
 53:    752.03   0.002984   15.08  0.001238  (-0.008359 -0.008621 -0.033077)
 54:    824.30   0.035717  180.50  0.013522  (-0.078389 -0.077249 -0.037541)
 55:    845.33   0.001878    9.49  0.000693  ( 0.010533 -0.017377 -0.016748)
 56:    861.97   0.043224  218.43  0.015648  (-0.106236 -0.050884 -0.042109)
 57:    899.76   0.031404  158.70  0.010892  ( 0.081300  0.001709  0.065415)
 58:    916.87   0.077165  389.96  0.026264  ( 0.084498 -0.116178 -0.075011)
 59:    922.15   0.025366  128.19  0.008584  ( 0.085892 -0.034347  0.005205)
 60:    943.00   0.004290   21.68  0.001420  (-0.027498 -0.021093 -0.014783)
 61:    966.03   0.002158   10.91  0.000697  (-0.010197  0.009993 -0.022211)
 62:    970.67   0.003504   17.71  0.001126  ( 0.021384  0.025867 -0.000158)
 63:   1039.18   0.002081   10.51  0.000625  ( 0.015257  0.015193  0.012696)
 64:   1052.76   0.001208    6.10  0.000358  ( 0.016690  0.001168  0.008837)
 65:   1075.15   0.020015  101.15  0.005809  (-0.018164  0.074020 -0.000749)
 66:   1097.70   0.005565   28.12  0.001582  (-0.007754 -0.013716 -0.036522)
 67:   1106.56   0.025929  131.03  0.007312  (-0.054414 -0.054100 -0.037745)
 68:   1110.07   0.021269  107.48  0.005979  (-0.053013 -0.023210  0.051284)
 69:   1122.69   0.011441   57.82  0.003180  ( 0.000961  0.045436 -0.033387)
 70:   1127.80   0.065474  330.88  0.018117  ( 0.118280  0.056925  0.029769)
 71:   1132.44   0.005985   30.25  0.001649  (-0.028682  0.012208  0.026032)
 72:   1141.71   0.010574   53.44  0.002890  ( 0.010762  0.047516  0.022729)
 73:   1153.12   0.017286   87.35  0.004678  (-0.028136  0.019882 -0.059085)
 74:   1175.59   0.016414   82.95  0.004357  ( 0.046293 -0.014781 -0.044674)
 75:   1181.71   0.034798  175.85  0.009189  ( 0.078669 -0.047761 -0.026824)
 76:   1208.24   0.012426   62.80  0.003209  ( 0.039760  0.002849 -0.040254)
 77:   1221.83   0.013884   70.16  0.003546  (-0.056773  0.015776 -0.008597)
 78:   1238.34   0.043091  217.77  0.010859  (-0.073657  0.022769 -0.070110)
 79:   1246.16   0.031889  161.16  0.007986  ( 0.079024 -0.041196 -0.006616)
 80:   1249.48   0.064157  324.22  0.016024  (-0.017343  0.036298 -0.120022)
 81:   1263.69   0.013320   67.32  0.003289  (-0.012709  0.014331 -0.054061)
 82:   1274.87   0.017047   86.15  0.004173  ( 0.008895 -0.058976 -0.024806)
 83:   1290.00   0.017730   89.60  0.004289  ( 0.051802  0.017433 -0.036081)
 84:   1315.43   0.007834   39.59  0.001858  (-0.024016  0.020194 -0.029563)
 85:   1317.95   0.005639   28.50  0.001335  (-0.002305  0.012346 -0.034315)
 86:   1323.28   0.010505   53.09  0.002477  ( 0.046065 -0.008291  0.016930)
 87:   1329.41   0.010113   51.11  0.002374  (-0.035942 -0.019569 -0.026441)
 88:   1331.97   0.012486   63.10  0.002925  ( 0.040815  0.030251  0.018556)
 89:   1351.77   0.009573   48.38  0.002210  ( 0.017352 -0.028327 -0.033262)
 90:   1391.88   0.001178    5.96  0.000264  ( 0.004313  0.004915 -0.014881)
 91:   1421.16   0.002004   10.13  0.000440  ( 0.002828  0.013316  0.015959)
 92:   1457.71   0.001656    8.37  0.000355  ( 0.009027  0.016508  0.000724)
 93:   1468.77   0.005124   25.89  0.001089  ( 0.004085  0.025301  0.020781)
 94:   1768.33   0.082385  416.34  0.014539  (-0.041195 -0.110579 -0.024779)
 95:   1774.15   0.093521  472.62  0.016450  ( 0.052876  0.082896 -0.082354)
 96:   2850.66   0.007399   37.39  0.000810  ( 0.001235  0.020288  0.019922)
 97:   2875.39   0.009226   46.63  0.001001  (-0.000110  0.021807  0.022929)
 98:   2946.45   0.006678   33.75  0.000707  ( 0.001102 -0.000384 -0.026568)
 99:   2964.59   0.003620   18.29  0.000381  (-0.001176 -0.012421 -0.015011)
100:   2977.19   0.004352   21.99  0.000456  (-0.000304 -0.021253  0.002088)
101:   3032.05   0.009757   49.31  0.001004  (-0.000771 -0.022083 -0.022714)
102:   3066.81   0.001304    6.59  0.000133  ( 0.000006  0.008907  0.007303)
103:   3068.33   0.000773    3.90  0.000079  ( 0.007300 -0.004785 -0.001550)
104:   3302.14   0.034756  175.64  0.003285  ( 0.038174 -0.038454  0.018670)
105:   3306.81   0.102480  517.89  0.009671  (-0.079337 -0.050405 -0.028914)
106:   3437.60   0.023933  120.95  0.002173  ( 0.041662 -0.019077 -0.008545)
107:   3438.35   0.008072   40.79  0.000733  (-0.014786 -0.015112  0.016901)
108:   3463.07   0.008420   42.55  0.000759  ( 0.025648 -0.008659 -0.005095)
109:   3575.05   0.012247   61.89  0.001069  ( 0.015399  0.011288 -0.026543)
110:   3629.38   0.018709   94.55  0.001609  (-0.035390 -0.013758  0.012921)

* The epsilon (eps) is given for a Dirac delta lineshape.
** The dipole moment derivative (T) already includes vibrational overlap.

The first frequency considered to be a vibration is 6
The total number of vibrations considered is 105


--------------------------
THERMOCHEMISTRY AT 298.15K
--------------------------

Temperature         ... 298.15 K
Pressure            ... 1.00 atm
Total Mass          ... 346.18 AMU

Throughout the following assumptions are being made:
  (1) The electronic state is orbitally nondegenerate
  (2) There are no thermally accessible electronically excited states
  (3) Hindered rotations indicated by low frequency modes are not
      treated as such but are treated as vibrations and this may
      cause some error
  (4) All equations used are the standard statistical mechanics
      equations for an ideal gas
  (5) All vibrations are strictly harmonic

freq.      36.20  E(vib)   ...       0.54 
freq.      49.30  E(vib)   ...       0.52 
freq.      65.16  E(vib)   ...       0.50 
freq.      69.54  E(vib)   ...       0.50 
freq.      84.98  E(vib)   ...       0.48 
freq.      96.13  E(vib)   ...       0.47 
freq.     133.18  E(vib)   ...       0.42 
freq.     145.30  E(vib)   ...       0.41 
freq.     151.94  E(vib)   ...       0.40 
freq.     162.63  E(vib)   ...       0.39 
freq.     170.95  E(vib)   ...       0.38 
freq.     180.17  E(vib)   ...       0.37 
freq.     182.29  E(vib)   ...       0.37 
freq.     194.62  E(vib)   ...       0.36 
freq.     203.32  E(vib)   ...       0.35 
freq.     247.68  E(vib)   ...       0.31 
freq.     254.74  E(vib)   ...       0.30 
freq.     264.11  E(vib)   ...       0.29 
freq.     275.13  E(vib)   ...       0.28 
freq.     279.54  E(vib)   ...       0.28 
freq.     292.13  E(vib)   ...       0.27 
freq.     312.81  E(vib)   ...       0.25 
freq.     318.05  E(vib)   ...       0.25 
freq.     345.03  E(vib)   ...       0.23 
freq.     355.24  E(vib)   ...       0.22 
freq.     361.32  E(vib)   ...       0.22 
freq.     376.95  E(vib)   ...       0.21 
freq.     391.63  E(vib)   ...       0.20 
freq.     407.02  E(vib)   ...       0.19 
freq.     414.22  E(vib)   ...       0.19 
freq.     418.76  E(vib)   ...       0.18 
freq.     425.81  E(vib)   ...       0.18 
freq.     447.70  E(vib)   ...       0.17 
freq.     453.08  E(vib)   ...       0.16 
freq.     478.58  E(vib)   ...       0.15 
freq.     493.79  E(vib)   ...       0.14 
freq.     524.33  E(vib)   ...       0.13 
freq.     544.24  E(vib)   ...       0.12 
freq.     555.90  E(vib)   ...       0.12 
freq.     584.15  E(vib)   ...       0.11 
freq.     620.63  E(vib)   ...       0.09 
freq.     649.94  E(vib)   ...       0.08 
freq.     664.74  E(vib)   ...       0.08 
freq.     672.15  E(vib)   ...       0.08 
freq.     691.97  E(vib)   ...       0.07 
freq.     713.36  E(vib)   ...       0.07 
freq.     734.05  E(vib)   ...       0.06 
freq.     752.03  E(vib)   ...       0.06 
freq.     824.30  E(vib)   ...       0.04 
freq.     845.33  E(vib)   ...       0.04 
freq.     861.97  E(vib)   ...       0.04 
freq.     899.76  E(vib)   ...       0.03 
freq.     916.87  E(vib)   ...       0.03 
freq.     922.15  E(vib)   ...       0.03 
freq.     943.00  E(vib)   ...       0.03 
freq.     966.03  E(vib)   ...       0.03 
freq.     970.67  E(vib)   ...       0.03 
freq.    1039.18  E(vib)   ...       0.02 
freq.    1052.76  E(vib)   ...       0.02 
freq.    1075.15  E(vib)   ...       0.02 
freq.    1097.70  E(vib)   ...       0.02 
freq.    1106.56  E(vib)   ...       0.02 
freq.    1110.07  E(vib)   ...       0.02 
freq.    1122.69  E(vib)   ...       0.01 
freq.    1127.80  E(vib)   ...       0.01 
freq.    1132.44  E(vib)   ...       0.01 
freq.    1141.71  E(vib)   ...       0.01 
freq.    1153.12  E(vib)   ...       0.01 
freq.    1175.59  E(vib)   ...       0.01 
freq.    1181.71  E(vib)   ...       0.01 
freq.    1208.24  E(vib)   ...       0.01 
freq.    1221.83  E(vib)   ...       0.01 
freq.    1238.34  E(vib)   ...       0.01 
freq.    1246.16  E(vib)   ...       0.01 
freq.    1249.48  E(vib)   ...       0.01 
freq.    1263.69  E(vib)   ...       0.01 
freq.    1274.87  E(vib)   ...       0.01 
freq.    1290.00  E(vib)   ...       0.01 
freq.    1315.43  E(vib)   ...       0.01 
freq.    1317.95  E(vib)   ...       0.01 
freq.    1323.28  E(vib)   ...       0.01 
freq.    1329.41  E(vib)   ...       0.01 
freq.    1331.97  E(vib)   ...       0.01 
freq.    1351.77  E(vib)   ...       0.01 
freq.    1391.88  E(vib)   ...       0.00 
freq.    1421.16  E(vib)   ...       0.00 
freq.    1457.71  E(vib)   ...       0.00 
freq.    1468.77  E(vib)   ...       0.00 
freq.    1768.33  E(vib)   ...       0.00 
freq.    1774.15  E(vib)   ...       0.00 
freq.    2850.66  E(vib)   ...       0.00 
freq.    2875.39  E(vib)   ...       0.00 
freq.    2946.45  E(vib)   ...       0.00 
freq.    2964.59  E(vib)   ...       0.00 
freq.    2977.19  E(vib)   ...       0.00 
freq.    3032.05  E(vib)   ...       0.00 
freq.    3066.81  E(vib)   ...       0.00 
freq.    3068.33  E(vib)   ...       0.00 
freq.    3302.14  E(vib)   ...       0.00 
freq.    3306.81  E(vib)   ...       0.00 
freq.    3437.60  E(vib)   ...       0.00 
freq.    3438.35  E(vib)   ...       0.00 
freq.    3463.07  E(vib)   ...       0.00 
freq.    3575.05  E(vib)   ...       0.00 
freq.    3629.38  E(vib)   ...       0.00 

------------
INNER ENERGY
------------

The inner energy is: U= E(el) + E(ZPE) + E(vib) + E(rot) + E(trans)
    E(el)   - is the total energy from the electronic structure calculation
              = E(kin-el) + E(nuc-el) + E(el-el) + E(nuc-nuc)
    E(ZPE)  - the the zero temperature vibrational energy from the frequency calculation
    E(vib)  - the the finite temperature correction to E(ZPE) due to population
              of excited vibrational states
    E(rot)  - is the rotational thermal energy
    E(trans)- is the translational thermal energy

Summary of contributions to the inner energy U:
Electronic energy                ...    -78.42810898 Eh
Zero point energy                ...      0.26219744 Eh     164.53 kcal/mol
Thermal vibrational correction   ...      0.02046340 Eh      12.84 kcal/mol
Thermal rotational correction    ...      0.00141627 Eh       0.89 kcal/mol
Thermal translational correction ...      0.00141627 Eh       0.89 kcal/mol
-----------------------------------------------------------------------
Total thermal energy                    -78.14261560 Eh


Summary of corrections to the electronic energy:
(perhaps to be used in another calculation)
Total thermal correction                  0.02329594 Eh      14.62 kcal/mol
Non-thermal (ZPE) correction              0.26219744 Eh     164.53 kcal/mol
-----------------------------------------------------------------------
Total correction                          0.28549338 Eh     179.15 kcal/mol


--------
ENTHALPY
--------

The enthalpy is H = U + kB*T
                kB is Boltzmann's constant
Total free energy                 ...    -78.14261560 Eh 
Thermal Enthalpy correction       ...      0.00094421 Eh       0.59 kcal/mol
-----------------------------------------------------------------------
Total Enthalpy                    ...    -78.14167139 Eh


Note: Only C1 symmetry has been detected, increase convergence thresholds 
      if your molecule has a higher symmetry. Symmetry factor of 1.0 is   
      used for the rotational entropy correction. 
 

Note: Rotational entropy computed according to Herzberg 
Infrared and Raman Spectra, Chapter V,1, Van Nostrand Reinhold, 1945 
Point Group:  C1, Symmetry Number:   1  
Rotational constants in cm-1:     0.015092     0.006888     0.006368 

Vibrational entropy computed according to the QRRHO of S. Grimme
Chem.Eur.J. 2012 18 9955


-------
ENTROPY
-------

The entropy contributions are T*S = T*(S(el)+S(vib)+S(rot)+S(trans))
     S(el)   - electronic entropy
     S(vib)  - vibrational entropy
     S(rot)  - rotational entropy
     S(trans)- translational entropy
The entropies will be listed as multiplied by the temperature to get
units of energy

Electronic entropy                ...      0.00000000 Eh      0.00 kcal/mol
Vibrational entropy               ...      0.03540213 Eh     22.22 kcal/mol
Rotational entropy                ...      0.01622767 Eh     10.18 kcal/mol
Translational entropy             ...      0.02062996 Eh     12.95 kcal/mol
-----------------------------------------------------------------------
Final entropy term                ...      0.07225975 Eh     45.34 kcal/mol

In case the symmetry of your molecule has not been determined correctly
or in case you have a reason to use a different symmetry number we print 
out the resulting rotational entropy values for sn=1,12 :
 --------------------------------------------------------
|  sn= 1 | S(rot)=       0.01622767 Eh     10.18 kcal/mol|
|  sn= 2 | S(rot)=       0.01557322 Eh      9.77 kcal/mol|
|  sn= 3 | S(rot)=       0.01519038 Eh      9.53 kcal/mol|
|  sn= 4 | S(rot)=       0.01491876 Eh      9.36 kcal/mol|
|  sn= 5 | S(rot)=       0.01470807 Eh      9.23 kcal/mol|
|  sn= 6 | S(rot)=       0.01453593 Eh      9.12 kcal/mol|
|  sn= 7 | S(rot)=       0.01439038 Eh      9.03 kcal/mol|
|  sn= 8 | S(rot)=       0.01426430 Eh      8.95 kcal/mol|
|  sn= 9 | S(rot)=       0.01415309 Eh      8.88 kcal/mol|
|  sn=10 | S(rot)=       0.01405362 Eh      8.82 kcal/mol|
|  sn=11 | S(rot)=       0.01396363 Eh      8.76 kcal/mol|
|  sn=12 | S(rot)=       0.01388147 Eh      8.71 kcal/mol|
 --------------------------------------------------------


-------------------
GIBBS FREE ENERGY
-------------------

The Gibbs free energy is G = H - T*S

Total enthalpy                    ...    -78.14167139 Eh 
Total entropy correction          ...     -0.07225975 Eh    -45.34 kcal/mol
-----------------------------------------------------------------------
Final Gibbs free energy         ...    -78.21393114 Eh

For completeness - the Gibbs free energy minus the electronic energy
G-E(el)                           ...      0.21417783 Eh    134.40 kcal/mol



Timings for individual modules:

Sum of individual times         ...      560.219 sec (=   9.337 min)
Geometry relaxation             ...        7.448 sec (=   0.124 min)   1.3 %
Numerical frequency calculation ...      547.488 sec (=   9.125 min)  97.7 %
XTB module                      ...        5.283 sec (=   0.088 min)   0.9 %
                             ****ORCA TERMINATED NORMALLY****
TOTAL RUN TIME: 0 days 0 hours 9 minutes 26 seconds 625 msec
