
                                 *****************
                                 * O   R   C   A *
                                 *****************

                                            #,                                       
                                            ###                                      
                                            ####                                     
                                            #####                                    
                                            ######                                   
                                           ########,                                 
                                     ,,################,,,,,                         
                               ,,#################################,,                 
                          ,,##########################################,,             
                       ,#########################################, ''#####,          
                    ,#############################################,,   '####,        
                  ,##################################################,,,,####,       
                ,###########''''           ''''###############################       
              ,#####''   ,,,,##########,,,,          '''####'''          '####       
            ,##' ,,,,###########################,,,                        '##       
           ' ,,###''''                  '''############,,,                           
         ,,##''                                '''############,,,,        ,,,,,,###''
      ,#''                                            '''#######################'''  
     '                                                          ''''####''''         
             ,#######,   #######,   ,#######,      ##                                
            ,#'     '#,  ##    ##  ,#'     '#,    #''#        ######   ,####,        
            ##       ##  ##   ,#'  ##            #'  '#       #        #'  '#        
            ##       ##  #######   ##           ,######,      #####,   #    #        
            '#,     ,#'  ##    ##  '#,     ,#' ,#      #,         ##   #,  ,#        
             '#######'   ##     ##  '#######'  #'      '#     #####' # '####'        



                  #######################################################
                  #                        -***-                        #
                  #          Department of theory and spectroscopy      #
                  #    Directorship and core code : Frank Neese         #
                  #        Max Planck Institute fuer Kohlenforschung    #
                  #                Kaiser Wilhelm Platz 1               #
                  #                 D-45470 Muelheim/Ruhr               #
                  #                      Germany                        #
                  #                                                     #
                  #                  All rights reserved                #
                  #                        -***-                        #
                  #######################################################


                         Program Version 5.0.3 -  RELEASE  -


 With contributions from (in alphabetic order):
   Daniel Aravena         : Magnetic Suceptibility
   Michael Atanasov       : Ab Initio Ligand Field Theory (pilot matlab implementation)
   Alexander A. Auer      : GIAO ZORA, VPT2 properties, NMR spectrum
   Ute Becker             : Parallelization
   Giovanni Bistoni       : ED, misc. LED, open-shell LED, HFLD
   Martin Brehm           : Molecular dynamics
   Dmytro Bykov           : SCF Hessian
   Vijay G. Chilkuri      : MRCI spin determinant printing, contributions to CSF-ICE
   Dipayan Datta          : RHF DLPNO-CCSD density
   Achintya Kumar Dutta   : EOM-CC, STEOM-CC
   Dmitry Ganyushin       : Spin-Orbit,Spin-Spin,Magnetic field MRCI
   Miquel Garcia          : C-PCM and meta-GGA Hessian, CC/C-PCM, Gaussian charge scheme
   Yang Guo               : DLPNO-NEVPT2, F12-NEVPT2, CIM, IAO-localization
   Andreas Hansen         : Spin unrestricted coupled pair/coupled cluster methods
   Benjamin Helmich-Paris : MC-RPA, TRAH-SCF, COSX integrals
   Lee Huntington         : MR-EOM, pCC
   Robert Izsak           : Overlap fitted RIJCOSX, COSX-SCS-MP3, EOM
   Marcus Kettner         : VPT2
   Christian Kollmar      : KDIIS, OOCD, Brueckner-CCSD(T), CCSD density, CASPT2, CASPT2-K
   Simone Kossmann        : Meta GGA functionals, TD-DFT gradient, OOMP2, MP2 Hessian
   Martin Krupicka        : Initial AUTO-CI
   Lucas Lang             : DCDCAS
   Marvin Lechner         : AUTO-CI (C++ implementation), FIC-MRCC
   Dagmar Lenk            : GEPOL surface, SMD
   Dimitrios Liakos       : Extrapolation schemes; Compound Job, initial MDCI parallelization
   Dimitrios Manganas     : Further ROCIS development; embedding schemes
   Dimitrios Pantazis     : SARC Basis sets
   Anastasios Papadopoulos: AUTO-CI, single reference methods and gradients
   Taras Petrenko         : DFT Hessian,TD-DFT gradient, ASA, ECA, R-Raman, ABS, FL, XAS/XES, NRVS
   Peter Pinski           : DLPNO-MP2, DLPNO-MP2 Gradient
   Christoph Reimann      : Effective Core Potentials
   Marius Retegan         : Local ZFS, SOC
   Christoph Riplinger    : Optimizer, TS searches, QM/MM, DLPNO-CCSD(T), (RO)-DLPNO pert. Triples
   Tobias Risthaus        : Range-separated hybrids, TD-DFT gradient, RPA, STAB
   Michael Roemelt        : Original ROCIS implementation
   Masaaki Saitow         : Open-shell DLPNO-CCSD energy and density
   Barbara Sandhoefer     : DKH picture change effects
   Avijit Sen             : IP-ROCIS
   Kantharuban Sivalingam : CASSCF convergence, NEVPT2, FIC-MRCI
   Bernardo de Souza      : ESD, SOC TD-DFT
   Georgi Stoychev        : AutoAux, RI-MP2 NMR, DLPNO-MP2 response
   Willem Van den Heuvel  : Paramagnetic NMR
   Boris Wezisla          : Elementary symmetry handling
   Frank Wennmohs         : Technical directorship


 We gratefully acknowledge several colleagues who have allowed us to
 interface, adapt or use parts of their codes:
   Stefan Grimme, W. Hujo, H. Kruse, P. Pracht,  : VdW corrections, initial TS optimization,
                  C. Bannwarth, S. Ehlert          DFT functionals, gCP, sTDA/sTD-DF
   Ed Valeev, F. Pavosevic, A. Kumar             : LibInt (2-el integral package), F12 methods
   Garnet Chan, S. Sharma, J. Yang, R. Olivares  : DMRG
   Ulf Ekstrom                                   : XCFun DFT Library
   Mihaly Kallay                                 : mrcc  (arbitrary order and MRCC methods)
   Jiri Pittner, Ondrej Demel                    : Mk-CCSD
   Frank Weinhold                                : gennbo (NPA and NBO analysis)
   Christopher J. Cramer and Donald G. Truhlar   : smd solvation model
   Lars Goerigk                                  : TD-DFT with DH, B97 family of functionals
   V. Asgeirsson, H. Jonsson                     : NEB implementation
   FAccTs GmbH                                   : IRC, NEB, NEB-TS, DLPNO-Multilevel, CI-OPT
                                                   MM, QMMM, 2- and 3-layer-ONIOM, Crystal-QMMM,
                                                   LR-CPCM, SF, NACMEs, symmetry and pop. for TD-DFT,
                                                   nearIR, NL-DFT gradient (VV10), updates on ESD,
                                                   ML-optimized integration grids
   S Lehtola, MJT Oliveira, MAL Marques          : LibXC Library
   Liviu Ungur et al                             : ANISO software


 Your calculation uses the libint2 library for the computation of 2-el integrals
 For citations please refer to: http://libint.valeyev.net

 Your ORCA version has been built with support for libXC version: 5.1.0
 For citations please refer to: https://tddft.org/programs/libxc/

 This ORCA versions uses:
   CBLAS   interface :  Fast vector & matrix operations
   LAPACKE interface :  Fast linear algebra routines
   SCALAPACK package :  Parallel linear algebra routines
   Shared memory     :  Shared parallel matrices
   BLAS/LAPACK       :  OpenBLAS 0.3.15  USE64BITINT DYNAMIC_ARCH NO_AFFINITY Haswell SINGLE_THREADED
        Core in use  :  Haswell
   Copyright (c) 2011-2014, The OpenBLAS Project


Your calculation utilizes the semiempirical GFN2-xTB method
Please cite in your paper:
C. Bannwarth, Ehlert S., S. Grimme,  J. Chem. Theory Comput., 15, (2019), 1652.
   

================================================================================

================================================================================
                                        WARNINGS
                       Please study these warnings very carefully!
================================================================================


WARNING: Geometry Optimization
  ===> : Switching off AutoStart
         For restart on a previous wavefunction, please use MOREAD

WARNING: Found dipole moment calculation with XTB calculation
  ===> : Switching off dipole moment calculation


WARNING: TRAH-SCF for XTB is not implemented!
  ===> : Turning TRAH off!

================================================================================
                                       INPUT FILE
================================================================================
NAME = /tmp/22.inp
|  1> ! XTB2 opt numfreq
|  2> * XYZ 0 1
|  3> C -4.6132 0.6868 -0.0564
|  4> C -3.4292 0.2256 -0.8678
|  5> O -3.4643 -0.8405 -1.4962
|  6> C -2.1582 1.1147 -0.8899
|  7> O -2.5573 2.4752 -0.8396
|  8> O -1.4965 0.9393 -2.1371
|  9> C -1.2262 0.6533 0.2810
| 10> O -1.8589 0.9934 1.5489
| 11> C 0.0335 1.5282 0.2298
| 12> O -0.0544 2.7484 0.0665
| 13> O 1.2433 0.9930 0.4960
| 14> C 1.5033 -0.4245 0.6262
| 15> C 2.0582 -0.9431 -0.7100
| 16> O 3.3437 -0.3960 -1.0060
| 17> P 4.5676 -0.7871 -0.0588
| 18> O 4.5264 -2.1511 0.5379
| 19> O 5.8640 -0.5172 -0.9448
| 20> O 4.6476 0.4118 0.9878
| 21> C 0.2800 -1.1727 1.1523
| 22> O -0.0032 -0.7372 2.4946
| 23> C -0.9419 -0.8712 0.2890
| 24> O -0.7628 -1.4877 -0.9811
| 25> H -4.3335 0.8252 0.9888
| 26> H -5.0075 1.6177 -0.4710
| 27> H -5.4003 -0.0718 -0.1035
| 28> H -1.8352 2.9678 -0.3958
| 29> H -2.1903 1.0183 -2.8160
| 30> H -1.2840 0.6254 2.2577
| 31> H 2.2788 -0.4897 1.3954
| 32> H 1.4211 -0.6350 -1.5432
| 33> H 2.1330 -2.0353 -0.7150
| 34> H 6.1356 -1.3255 -1.4177
| 35> H 4.8064 1.2586 0.5317
| 36> H 0.4766 -2.2507 1.1806
| 37> H 0.7257 -1.0580 3.0624
| 38> H -1.7957 -1.3745 0.7634
| 39> H -1.6322 -1.5139 -1.4399
| 40> *
| 41> 
| 42>                          ****END OF INPUT****
================================================================================

                       *****************************
                       * Geometry Optimization Run *
                       *****************************

Geometry optimization settings:
Update method            Update   .... BFGS
Choice of coordinates    CoordSys .... Z-matrix Internals
Initial Hessian          InHess   .... Almoef's Model

Convergence Tolerances:
Energy Change            TolE     ....  5.0000e-06 Eh
Max. Gradient            TolMAXG  ....  3.0000e-04 Eh/bohr
RMS Gradient             TolRMSG  ....  1.0000e-04 Eh/bohr
Max. Displacement        TolMAXD  ....  4.0000e-03 bohr
RMS Displacement         TolRMSD  ....  2.0000e-03 bohr
Strict Convergence                ....  False
------------------------------------------------------------------------------
                        ORCA OPTIMIZATION COORDINATE SETUP
------------------------------------------------------------------------------

The optimization will be done in new redundant internal coordinates
Making redundant internal coordinates   ...  (new redundants) done
Evaluating the initial hessian          ...  (Almloef) done
Evaluating the coordinates              ...  done
Calculating the B-matrix                .... done
Calculating the G-matrix                .... done
Diagonalizing the G-matrix              .... done
Small eigenvalue found = 6.210e-03
Small eigenvalue found = 9.851e-03
Small eigenvalue found = 1.721e-02
Small eigenvalue found = 1.951e-02
Small eigenvalue found = 2.328e-02
The first mode is                       ....   90
The number of degrees of freedom        ....  105

    -----------------------------------------------------------------
                    Redundant Internal Coordinates


    -----------------------------------------------------------------
         Definition                    Initial Value    Approx d2E/dq
    -----------------------------------------------------------------
      1. B(C   1,C   0)                  1.5076         0.405580   
      2. B(O   2,C   1)                  1.2380         0.978033   
      3. B(C   3,C   1)                  1.5513         0.345500   
      4. B(O   4,C   3)                  1.4187         0.503561   
      5. B(O   5,C   3)                  1.4227         0.496226   
      6. B(C   6,C   3)                  1.5661         0.327234   
      7. B(O   7,C   6)                  1.4572         0.437118   
      8. B(C   8,C   6)                  1.5346         0.367351   
      9. B(O   9,C   8)                  1.2342         0.991800   
     10. B(O  10,C   8)                  1.3494         0.649573   
     11. B(C  11,O  10)                  1.4470         0.453846   
     12. B(C  12,C  11)                  1.5370         0.364125   
     13. B(O  13,C  12)                  1.4281         0.486523   
     14. B(P  14,O  13)                  1.5963         0.881614   
     15. B(O  15,P  14)                  1.4894         1.305628   
     16. B(O  16,P  14)                  1.5933         0.891399   
     17. B(O  17,P  14)                  1.5935         0.890744   
     18. B(C  18,C  11)                  1.5274         0.377116   
     19. B(O  19,C  18)                  1.4393         0.466868   
     20. B(C  20,C  18)                  1.5262         0.378853   
     21. B(C  20,C   6)                  1.5508         0.346089   
     22. B(O  21,C  20)                  1.4231         0.495469   
     23. B(H  22,C   0)                  1.0908         0.359052   
     24. B(H  23,C   0)                  1.0927         0.356578   
     25. B(H  24,C   0)                  1.0942         0.354619   
     26. B(H  25,O   4)                  0.9803         0.482543   
     27. B(H  26,O   5)                  0.9739         0.494050   
     28. B(H  27,O   7)                  0.9840         0.476009   
     29. B(H  28,C  11)                  1.0942         0.354559   
     30. B(H  29,C  12)                  1.0932         0.355917   
     31. B(H  30,C  12)                  1.0948         0.353845   
     32. B(H  31,O  16)                  0.9751         0.491964   
     33. B(H  32,O  17)                  0.9748         0.492367   
     34. B(H  33,C  18)                  1.0961         0.352060   
     35. B(H  34,O  19)                  0.9781         0.486576   
     36. B(H  35,C  20)                  1.0988         0.348657   
     37. B(H  36,O  21)                  0.9834         0.477158   
     38. A(H  22,C   0,H  24)          108.2805         0.290007   
     39. A(C   1,C   0,H  22)          110.6795         0.328580   
     40. A(H  22,C   0,H  23)          110.3657         0.290258   
     41. A(H  23,C   0,H  24)          108.3453         0.289693   
     42. A(C   1,C   0,H  23)          109.8650         0.328205   
     43. A(C   1,C   0,H  24)          109.2494         0.327907   
     44. A(O   2,C   1,C   3)          120.6340         0.421386   
     45. A(C   0,C   1,C   3)          118.4108         0.363605   
     46. A(C   0,C   1,O   2)          120.9538         0.433669   
     47. A(O   5,C   3,C   6)          110.0185         0.370584   
     48. A(C   1,C   3,O   5)          108.8382         0.374067   
     49. A(O   4,C   3,C   6)          115.0521         0.371521   
     50. A(O   4,C   3,O   5)          106.2687         0.396885   
     51. A(C   1,C   3,O   4)          108.5803         0.375015   
     52. A(C   1,C   3,C   6)          107.9442         0.350583   
     53. A(C   3,O   4,H  25)          106.9001         0.352693   
     54. A(C   3,O   5,H  26)          105.6500         0.353224   
     55. A(O   7,C   6,C  20)          107.7302         0.366107   
     56. A(O   7,C   6,C   8)          104.6182         0.369872   
     57. A(C   3,C   6,O   7)          108.8673         0.362616   
     58. A(C   8,C   6,C  20)          114.2137         0.357623   
     59. A(C   3,C   6,C  20)          113.7400         0.350683   
     60. A(C   3,C   6,C   8)          107.1940         0.354239   
     61. A(C   6,O   7,H  27)          106.6050         0.343594   
     62. A(O   9,C   8,O  10)          118.8204         0.470492   
     63. A(C   6,C   8,O   9)          120.6375         0.427100   
     64. A(C   6,C   8,O  10)          120.2150         0.396217   
     65. A(C   8,O  10,C  11)          124.5668         0.408625   
     66. A(O  10,C  11,C  18)          111.5269         0.373957   
     67. A(C  12,C  11,C  18)          115.0436         0.362348   
     68. A(C  18,C  11,H  28)          107.2351         0.323996   
     69. A(O  10,C  11,H  28)          104.4163         0.332039   
     70. A(C  12,C  11,H  28)          109.5822         0.322138   
     71. A(O  10,C  11,C  12)          108.4924         0.371705   
     72. A(H  29,C  12,H  30)          108.5127         0.289510   
     73. A(O  13,C  12,H  30)          108.6478         0.335781   
     74. A(C  11,C  12,H  30)          111.4237         0.322032   
     75. A(O  13,C  12,H  29)          104.9903         0.336108   
     76. A(C  11,C  12,H  29)          110.9229         0.322340   
     77. A(C  11,C  12,O  13)          112.0809         0.376189   
     78. A(C  12,O  13,P  14)          118.2498         0.467052   
     79. A(O  16,P  14,O  17)          101.3580         0.561213   
     80. A(O  15,P  14,O  17)          115.2961         0.603816   
     81. A(O  13,P  14,O  17)          104.1163         0.560034   
     82. A(O  15,P  14,O  16)          113.6056         0.603902   
     83. A(O  13,P  14,O  16)          104.6187         0.560113   
     84. A(O  13,P  14,O  15)          116.1617         0.602617   
     85. A(P  14,O  16,H  31)          110.8497         0.416483   
     86. A(P  14,O  17,H  32)          110.7591         0.416489   
     87. A(C  20,C  18,H  33)          110.6392         0.323864   
     88. A(O  19,C  18,H  33)          107.9856         0.333209   
     89. A(C  11,C  18,H  33)          110.3028         0.323620   
     90. A(C  11,C  18,O  19)          109.3044         0.375787   
     91. A(O  19,C  18,C  20)          108.0729         0.376085   
     92. A(C  11,C  18,C  20)          110.4634         0.364812   
     93. A(C  18,O  19,H  34)          107.1891         0.348704   
     94. A(O  21,C  20,H  35)          106.5399         0.335974   
     95. A(C  18,C  20,H  35)          106.7026         0.323348   
     96. A(C   6,C  20,H  35)          108.0627         0.318599   
     97. A(C  18,C  20,O  21)          108.5720         0.379975   
     98. A(C   6,C  20,O  21)          116.3798         0.374079   
     99. A(C   6,C  20,C  18)          110.1143         0.359504   
    100. A(C  20,O  21,H  36)          108.4613         0.351061   
    101. D(O   2,C   1,C   0,H  22)    121.6717         0.012193   
    102. D(O   2,C   1,C   0,H  24)      2.5323         0.012193   
    103. D(C   3,C   1,C   0,H  24)   -177.0476         0.012193   
    104. D(C   3,C   1,C   0,H  23)     64.2250         0.012193   
    105. D(C   3,C   1,C   0,H  22)    -57.9083         0.012193   
    106. D(O   2,C   1,C   0,H  23)   -116.1950         0.012193   
    107. D(C   6,C   3,C   1,O   2)    -88.9977         0.009042   
    108. D(O   5,C   3,C   1,O   2)     30.3874         0.009042   
    109. D(O   4,C   3,C   1,C   0)    -34.7564         0.009042   
    110. D(C   6,C   3,C   1,C   0)     90.5836         0.009042   
    111. D(O   5,C   3,C   1,C   0)   -150.0312         0.009042   
    112. D(O   4,C   3,C   1,O   2)    145.6622         0.009042   
    113. D(H  25,O   4,C   3,C   6)     29.8379         0.020056   
    114. D(H  25,O   4,C   3,O   5)    -92.1702         0.020056   
    115. D(H  25,O   4,C   3,C   1)    150.8961         0.020056   
    116. D(H  26,O   5,C   3,O   4)    -69.1473         0.019458   
    117. D(H  26,O   5,C   3,C   6)    165.6976         0.019458   
    118. D(H  26,O   5,C   3,C   1)     47.6139         0.019458   
    119. D(O   7,C   6,C   3,O   5)    173.1434         0.008735   
    120. D(C  20,C   6,C   3,O   4)    173.3062         0.008735   
    121. D(C  20,C   6,C   3,C   1)     51.9018         0.008735   
    122. D(C   8,C   6,C   3,O   5)     60.5039         0.008735   
    123. D(O   7,C   6,C   3,C   1)    -68.2223         0.008735   
    124. D(O   7,C   6,C   3,O   4)     53.1821         0.008735   
    125. D(C   8,C   6,C   3,O   4)    -59.4574         0.008735   
    126. D(C  20,C   6,C   3,O   5)    -66.7325         0.008735   
    127. D(C   8,C   6,C   3,C   1)    179.1383         0.008735   
    128. D(H  27,O   7,C   6,C  20)     51.7199         0.015047   
    129. D(H  27,O   7,C   6,C   8)    -70.1767         0.015047   
    130. D(H  27,O   7,C   6,C   3)    175.4943         0.015047   
    131. D(O   9,C   8,C   6,C   3)     44.8002         0.010116   
    132. D(O  10,C   8,C   6,C  20)    -14.8864         0.010116   
    133. D(O  10,C   8,C   6,O   7)    102.6540         0.010116   
    134. D(O  10,C   8,C   6,C   3)   -141.8443         0.010116   
    135. D(O   9,C   8,C   6,C  20)    171.7581         0.010116   
    136. D(O   9,C   8,C   6,O   7)    -70.7015         0.010116   
    137. D(C  11,O  10,C   8,O   9)   -175.9590         0.031180   
    138. D(C  11,O  10,C   8,C   6)     10.5657         0.031180   
    139. D(H  28,C  11,O  10,C   8)   -145.3960         0.016223   
    140. D(C  18,C  11,O  10,C   8)    -29.9116         0.016223   
    141. D(C  12,C  11,O  10,C   8)     97.8045         0.016223   
    142. D(H  30,C  12,C  11,H  28)     74.9946         0.010621   
    143. D(H  30,C  12,C  11,C  18)    -45.8912         0.010621   
    144. D(H  30,C  12,C  11,O  10)   -171.5764         0.010621   
    145. D(H  29,C  12,C  11,H  28)   -163.9964         0.010621   
    146. D(H  29,C  12,C  11,C  18)     75.1178         0.010621   
    147. D(O  13,C  12,C  11,H  28)    -47.0003         0.010621   
    148. D(O  13,C  12,C  11,O  10)     66.4286         0.010621   
    149. D(O  13,C  12,C  11,C  18)   -167.8861         0.010621   
    150. D(H  29,C  12,C  11,O  10)    -50.5675         0.010621   
    151. D(P  14,O  13,C  12,H  30)    -57.7441         0.018684   
    152. D(P  14,O  13,C  12,H  29)   -173.6743         0.018684   
    153. D(P  14,O  13,C  12,C  11)     65.8230         0.018684   
    154. D(O  17,P  14,O  13,C  12)    -95.4984         0.013436   
    155. D(O  16,P  14,O  13,C  12)    158.5122         0.013436   
    156. D(O  15,P  14,O  13,C  12)     32.4120         0.013436   
    157. D(H  31,O  16,P  14,O  17)    159.4966         0.013723   
    158. D(H  31,O  16,P  14,O  15)     35.2044         0.013723   
    159. D(H  31,O  16,P  14,O  13)    -92.4755         0.013723   
    160. D(H  32,O  17,P  14,O  16)     48.3152         0.013703   
    161. D(H  32,O  17,P  14,O  15)    171.4556         0.013703   
    162. D(H  32,O  17,P  14,O  13)    -60.1035         0.013703   
    163. D(O  19,C  18,C  11,O  10)    -65.1358         0.011344   
    164. D(H  33,C  18,C  11,C  12)     52.1802         0.011344   
    165. D(H  33,C  18,C  11,O  10)    176.2807         0.011344   
    166. D(C  20,C  18,C  11,H  28)    167.3913         0.011344   
    167. D(C  20,C  18,C  11,C  12)    -70.4492         0.011344   
    168. D(C  20,C  18,C  11,O  10)     53.6514         0.011344   
    169. D(O  19,C  18,C  11,H  28)     48.6041         0.011344   
    170. D(H  33,C  18,C  11,H  28)    -69.9794         0.011344   
    171. D(O  19,C  18,C  11,C  12)    170.7636         0.011344   
    172. D(H  34,O  19,C  18,H  33)     51.7556         0.017178   
    173. D(H  34,O  19,C  18,C  20)    171.4757         0.017178   
    174. D(H  34,O  19,C  18,C  11)    -68.2614         0.017178   
    175. D(H  35,C  20,C  18,H  33)     61.8009         0.011443   
    176. D(H  35,C  20,C  18,C  11)   -175.7667         0.011443   
    177. D(O  21,C  20,C  18,H  33)    -52.6789         0.011443   
    178. D(O  21,C  20,C  18,O  19)   -170.7127         0.011443   
    179. D(C   6,C  20,C  18,H  33)    178.8423         0.011443   
    180. D(C   6,C  20,C  18,O  19)     60.8085         0.011443   
    181. D(C   6,C  20,C  18,C  11)    -58.7253         0.011443   
    182. D(H  35,C  20,C   6,C   8)    155.0625         0.009668   
    183. D(H  35,C  20,C   6,O   7)     39.3216         0.009668   
    184. D(H  35,C  20,C   6,C   3)    -81.4424         0.009668   
    185. D(O  21,C  20,C   6,C   8)    -85.2021         0.009668   
    186. D(O  21,C  20,C  18,C  11)     69.7535         0.011443   
    187. D(O  21,C  20,C   6,O   7)    159.0570         0.009668   
    188. D(O  21,C  20,C   6,C   3)     38.2931         0.009668   
    189. D(C  18,C  20,C   6,C   8)     38.8707         0.009668   
    190. D(H  35,C  20,C  18,O  19)    -56.2329         0.011443   
    191. D(C  18,C  20,C   6,O   7)    -76.8702         0.009668   
    192. D(C  18,C  20,C   6,C   3)    162.3659         0.009668   
    193. D(H  36,O  21,C  20,H  35)     49.7188         0.019397   
    194. D(H  36,O  21,C  20,C  18)    164.3050         0.019397   
    195. D(H  36,O  21,C  20,C   6)    -70.8334         0.019397   
    -----------------------------------------------------------------

Number of atoms                         .... 37
Number of degrees of freedom            .... 195

         *************************************************************
         *                GEOMETRY OPTIMIZATION CYCLE   1            *
         *************************************************************
---------------------------------
CARTESIAN COORDINATES (ANGSTROEM)
---------------------------------
  C    -4.613200    0.686800   -0.056400
  C    -3.429200    0.225600   -0.867800
  O    -3.464300   -0.840500   -1.496200
  C    -2.158200    1.114700   -0.889900
  O    -2.557300    2.475200   -0.839600
  O    -1.496500    0.939300   -2.137100
  C    -1.226200    0.653300    0.281000
  O    -1.858900    0.993400    1.548900
  C     0.033500    1.528200    0.229800
  O    -0.054400    2.748400    0.066500
  O     1.243300    0.993000    0.496000
  C     1.503300   -0.424500    0.626200
  C     2.058200   -0.943100   -0.710000
  O     3.343700   -0.396000   -1.006000
  P     4.567600   -0.787100   -0.058800
  O     4.526400   -2.151100    0.537900
  O     5.864000   -0.517200   -0.944800
  O     4.647600    0.411800    0.987800
  C     0.280000   -1.172700    1.152300
  O    -0.003200   -0.737200    2.494600
  C    -0.941900   -0.871200    0.289000
  O    -0.762800   -1.487700   -0.981100
  H    -4.333500    0.825200    0.988800
  H    -5.007500    1.617700   -0.471000
  H    -5.400300   -0.071800   -0.103500
  H    -1.835200    2.967800   -0.395800
  H    -2.190300    1.018300   -2.816000
  H    -1.284000    0.625400    2.257700
  H     2.278800   -0.489700    1.395400
  H     1.421100   -0.635000   -1.543200
  H     2.133000   -2.035300   -0.715000
  H     6.135600   -1.325500   -1.417700
  H     4.806400    1.258600    0.531700
  H     0.476600   -2.250700    1.180600
  H     0.725700   -1.058000    3.062400
  H    -1.795700   -1.374500    0.763400
  H    -1.632200   -1.513900   -1.439900

----------------------------
CARTESIAN COORDINATES (A.U.)
----------------------------
  NO LB    ZA    FRAG    MASS        X           Y           Z
   0 C   6.0000    0    12.011   -8.717685    1.297864   -0.106581
   1 C   6.0000    0    12.011   -6.480249    0.426322   -1.639904
   2 O   8.0000    0    15.999   -6.546578   -1.588315   -2.827408
   3 C   6.0000    0    12.011   -4.078407    2.106478   -1.681667
   4 O   8.0000    0    15.999   -4.832597    4.677450   -1.586614
   5 O   8.0000    0    15.999   -2.827975    1.775020   -4.038534
   6 C   6.0000    0    12.011   -2.317182    1.234558    0.531013
   7 O   8.0000    0    15.999   -3.512812    1.877254    2.926997
   8 C   6.0000    0    12.011    0.063306    2.887879    0.434259
   9 O   8.0000    0    15.999   -0.102801    5.193723    0.125667
  10 O   8.0000    0    15.999    2.349497    1.876498    0.937304
  11 C   6.0000    0    12.011    2.840825   -0.802189    1.183347
  12 C   6.0000    0    12.011    3.889434   -1.782201   -1.341706
  13 O   8.0000    0    15.999    6.318677   -0.748332   -1.901064
  14 P  15.0000    0    30.974    8.631513   -1.487403   -0.111116
  15 O   8.0000    0    15.999    8.553656   -4.064990    1.016484
  16 O   8.0000    0    15.999   11.081354   -0.977366   -1.785413
  17 O   8.0000    0    15.999    8.782691    0.778189    1.866671
  18 C   6.0000    0    12.011    0.529123   -2.216082    2.177531
  19 O   8.0000    0    15.999   -0.006047   -1.393106    4.714111
  20 C   6.0000    0    12.011   -1.779933   -1.646329    0.546131
  21 O   8.0000    0    15.999   -1.441483   -2.811346   -1.854010
  22 H   1.0000    0     1.008   -8.189128    1.559402    1.868561
  23 H   1.0000    0     1.008   -9.462804    3.057010   -0.890061
  24 H   1.0000    0     1.008  -10.205088   -0.135682   -0.195587
  25 H   1.0000    0     1.008   -3.468025    5.608329   -0.747954
  26 H   1.0000    0     1.008   -4.139067    1.924308   -5.321469
  27 H   1.0000    0     1.008   -2.426408    1.181835    4.266435
  28 H   1.0000    0     1.008    4.306308   -0.925399    2.636924
  29 H   1.0000    0     1.008    2.685490   -1.199976   -2.916225
  30 H   1.0000    0     1.008    4.030786   -3.846160   -1.351154
  31 H   1.0000    0     1.008   11.594604   -2.504832   -2.679065
  32 H   1.0000    0     1.008    9.082780    2.378409    1.004767
  33 H   1.0000    0     1.008    0.900643   -4.253207    2.231011
  34 H   1.0000    0     1.008    1.371374   -1.999330    5.787097
  35 H   1.0000    0     1.008   -3.393381   -2.597429    1.442617
  36 H   1.0000    0     1.008   -3.084411   -2.860856   -2.721017

      -----------------------------------------------------------      
     |                   =====================                   |     
     |                           x T B                           |     
     |                   =====================                   |     
     |                         S. Grimme                         |     
     |          Mulliken Center for Theoretical Chemistry        |     
     |                    University of Bonn                     |     
      -----------------------------------------------------------      

   * xtb version 6.5.1 (579679a) compiled by 'ehlert@majestix' on 2022-07-11

   xtb is free software: you can redistribute it and/or modify it under
   the terms of the GNU Lesser General Public License as published by
   the Free Software Foundation, either version 3 of the License, or
   (at your option) any later version.
   
   xtb is distributed in the hope that it will be useful,
   but WITHOUT ANY WARRANTY; without even the implied warranty of
   MERCHANTABILITY or FITNESS FOR A PARTICULAR PURPOSE.  See the
   GNU Lesser General Public License for more details.
   
   Cite this work as:
   * C. Bannwarth, E. Caldeweyher, S. Ehlert, A. Hansen, P. Pracht,
     J. Seibert, S. Spicher, S. Grimme, WIREs Comput. Mol. Sci., 2020, 11,
     e01493. DOI: 10.1002/wcms.1493
   
   for GFN2-xTB:
   * C. Bannwarth, S. Ehlert and S. Grimme., J. Chem. Theory Comput., 2019,
     15, 1652-1671. DOI: 10.1021/acs.jctc.8b01176
   for GFN1-xTB:
   * S. Grimme, C. Bannwarth, P. Shushkov, J. Chem. Theory Comput., 2017,
     13, 1989-2009. DOI: 10.1021/acs.jctc.7b00118
   for GFN0-xTB:
   * P. Pracht, E. Caldeweyher, S. Ehlert, S. Grimme, ChemRxiv, 2019, preprint.
     DOI: 10.26434/chemrxiv.8326202.v1
   for GFN-FF:
   * S. Spicher and S. Grimme, Angew. Chem. Int. Ed., 2020, 59, 15665-15673.
     DOI: 10.1002/anie.202004239
   
   for ALPB and GBSA implicit solvation:
   * S. Ehlert, M. Stahn, S. Spicher, S. Grimme, J. Chem. Theory Comput.,
     2021, 17, 4250-4261. DOI: 10.1021/acs.jctc.1c00471
   
   for DFT-D4:
   * E. Caldeweyher, C. Bannwarth and S. Grimme, J. Chem. Phys., 2017,
     147, 034112. DOI: 10.1063/1.4993215
   * E. Caldeweyher, S. Ehlert, A. Hansen, H. Neugebauer, S. Spicher,
     C. Bannwarth and S. Grimme, J. Chem. Phys., 2019, 150, 154122.
     DOI: 10.1063/1.5090222
   * E. Caldeweyher, J.-M. Mewes, S. Ehlert and S. Grimme, Phys. Chem. Chem. Phys.
     2020, 22, 8499-8512. DOI: 10.1039/D0CP00502A
   
   for sTDA-xTB:
   * S. Grimme and C. Bannwarth, J. Chem. Phys., 2016, 145, 054103.
     DOI: 10.1063/1.4959605
   
   in the mass-spec context:
   * V. Asgeirsson, C. Bauer and S. Grimme, Chem. Sci., 2017, 8, 4879.
     DOI: 10.1039/c7sc00601b
   * J. Koopman and S. Grimme, ACS Omega 2019, 4, 12, 15120-15133.
     DOI: 10.1021/acsomega.9b02011
   
   for metadynamics refer to:
   * S. Grimme, J. Chem. Theory Comput., 2019, 155, 2847-2862
     DOI: 10.1021/acs.jctc.9b00143
   
   for SPH calculations refer to:
   * S. Spicher and S. Grimme, J. Chem. Theory Comput., 2021, 17, 1701-1714
     DOI: 10.1021/acs.jctc.0c01306
   
   with help from (in alphabetical order)
   P. Atkinson, C. Bannwarth, F. Bohle, G. Brandenburg, E. Caldeweyher
   M. Checinski, S. Dohm, S. Ehlert, S. Ehrlich, I. Gerasimov, C. Hölzer
   A. Katbashev, J. Koopman, C. Lavigne, S. Lehtola, F. März, M. Müller,
   F. Musil, H. Neugebauer, J. Pisarek, C. Plett, P. Pracht, F. Pultar,
   J. Seibert, P. Shushkov, S. Spicher, M. Stahn, M. Steiner, T. Strunk,
   J. Stückrath, T. Rose, and J. Unsleber
   
 * started run on 2023/12/06 at 21:16:49.694     

           -------------------------------------------------
          |                Calculation Setup                |
           -------------------------------------------------

          program call               : otool_xtb /tmp/22_XTB.xyz --grad -c 0 -u 0 -P 1 --namespace /tmp/22 --input /tmp/22_XTB.input.tmp --acc 1.000000
          calculation namespace      : /tmp/22
          coordinate file            : /tmp/22_XTB.xyz
          omp threads                :                     1

   ID    Z sym.   atoms
    1    6 C      1, 2, 4, 7, 9, 12, 13, 19, 21
    2    8 O      3, 5, 6, 8, 10, 11, 14, 16-18, 20, 22
    3   15 P      15
    4    1 H      23-37

           -------------------------------------------------
          |                 G F N 2 - x T B                 |
           -------------------------------------------------

        Reference                      10.1021/acs.jctc.8b01176
      * Hamiltonian:
        H0-scaling (s, p, d)           1.850000    2.230000    2.230000
        zeta-weighting                 0.500000
      * Dispersion:
        s8                             2.700000
        a1                             0.520000
        a2                             5.000000
        s9                             5.000000
      * Repulsion:
        kExp                           1.500000    1.000000
        rExp                           1.000000
      * Coulomb:
        alpha                          2.000000
        third order                    shell-resolved
        anisotropic                    true
        a3                             3.000000
        a5                             4.000000
        cn-shift                       1.200000
        cn-exp                         4.000000
        max-rad                        5.000000


          ...................................................
          :                      SETUP                      :
          :.................................................:
          :  # basis functions                 109          :
          :  # atomic orbitals                 108          :
          :  # shells                           60          :
          :  # electrons                       128          :
          :  max. iterations                   250          :
          :  Hamiltonian                  GFN2-xTB          :
          :  restarted?                      false          :
          :  GBSA solvation                  false          :
          :  PC potential                    false          :
          :  electronic temp.          300.0000000     K    :
          :  accuracy                    1.0000000          :
          :  -> integral cutoff          0.2500000E+02      :
          :  -> integral neglect         0.1000000E-07      :
          :  -> SCF convergence          0.1000000E-05 Eh   :
          :  -> wf. convergence          0.1000000E-03 e    :
          :  Broyden damping             0.4000000          :
          ...................................................

 iter      E             dE          RMSdq      gap      omega  full diag
   1    -78.7537565 -0.787538E+02  0.626E+00    3.69       0.0  T
   2    -78.8560331 -0.102277E+00  0.350E+00    2.94       1.0  T
   3    -78.8556977  0.335334E-03  0.144E+00    3.44       1.0  T
   4    -78.8802995 -0.246018E-01  0.478E-01    3.09       1.0  T
   5    -78.8815131 -0.121361E-02  0.199E-01    3.23       1.0  T
   6    -78.8817638 -0.250638E-03  0.779E-02    3.18       1.0  T
   7    -78.8818156 -0.517976E-04  0.444E-02    3.19       1.0  T
   8    -78.8818236 -0.799756E-05  0.125E-02    3.19       1.3  T
   9    -78.8818248 -0.121133E-05  0.597E-03    3.19       2.8  T
  10    -78.8818249 -0.135900E-06  0.194E-03    3.19       8.5  T
  11    -78.8818249 -0.303560E-07  0.776E-04    3.19      21.2  T
  12    -78.8818250 -0.308768E-08  0.276E-04    3.19      59.7  T

   *** convergence criteria satisfied after 12 iterations ***

         #    Occupation            Energy/Eh            Energy/eV
      -------------------------------------------------------------
         1        2.0000           -0.7684149             -20.9096
       ...           ...                  ...                  ...
        58        2.0000           -0.4572303             -12.4419
        59        2.0000           -0.4491804             -12.2228
        60        2.0000           -0.4449710             -12.1083
        61        2.0000           -0.4443095             -12.0903
        62        2.0000           -0.4431328             -12.0583
        63        2.0000           -0.4305627             -11.7162
        64        2.0000           -0.4129045             -11.2357 (HOMO)
        65                         -0.2957998              -8.0491 (LUMO)
        66                         -0.2746138              -7.4726
        67                         -0.0946485              -2.5755
        68                         -0.0789312              -2.1478
        69                         -0.0651319              -1.7723
       ...                                ...                  ...
       108                          1.2171232              33.1196
      -------------------------------------------------------------
                  HL-Gap            0.1171047 Eh            3.1866 eV
             Fermi-level           -0.3543522 Eh           -9.6424 eV

 SCC (total)                   0 d,  0 h,  0 min,  0.060 sec
 SCC setup                      ...        0 min,  0.000 sec (  0.429%)
 Dispersion                     ...        0 min,  0.000 sec (  0.620%)
 classical contributions        ...        0 min,  0.000 sec (  0.129%)
 integral evaluation            ...        0 min,  0.008 sec ( 14.181%)
 iterations                     ...        0 min,  0.024 sec ( 40.636%)
 molecular gradient             ...        0 min,  0.026 sec ( 43.566%)
 printout                       ...        0 min,  0.000 sec (  0.404%)

         :::::::::::::::::::::::::::::::::::::::::::::::::::::
         ::                     SUMMARY                     ::
         :::::::::::::::::::::::::::::::::::::::::::::::::::::
         :: total energy             -78.382796882785 Eh    ::
         :: gradient norm              0.118243997165 Eh/a0 ::
         :: HOMO-LUMO gap              3.186580614112 eV    ::
         ::.................................................::
         :: SCC energy               -78.881824952900 Eh    ::
         :: -> isotropic ES            0.291956761836 Eh    ::
         :: -> anisotropic ES         -0.012017041164 Eh    ::
         :: -> anisotropic XC         -0.008943293948 Eh    ::
         :: -> dispersion             -0.040080690765 Eh    ::
         :: repulsion energy           0.498501859921 Eh    ::
         :: add. restraining           0.000000000000 Eh    ::
         :: total charge               0.000000000000 e     ::
         :::::::::::::::::::::::::::::::::::::::::::::::::::::


Property printout bound to 'properties.out'

           -------------------------------------------------
          | TOTAL ENERGY              -78.382796882785 Eh   |
          | GRADIENT NORM               0.118243997165 Eh/α |
          | HOMO-LUMO GAP               3.186580614112 eV   |
           -------------------------------------------------

------------------------------------------------------------------------
 * finished run on 2023/12/06 at 21:16:49.769     
------------------------------------------------------------------------
 total:
 * wall-time:     0 d,  0 h,  0 min,  0.075 sec
 *  cpu-time:     0 d,  0 h,  0 min,  0.072 sec
 * ratio c/w:     0.959 speedup
 SCF:
 * wall-time:     0 d,  0 h,  0 min,  0.060 sec
 *  cpu-time:     0 d,  0 h,  0 min,  0.060 sec
 * ratio c/w:     0.998 speedup


-------------------------   --------------------
FINAL SINGLE POINT ENERGY       -78.382796882780
-------------------------   --------------------

------------------------------------------------------------------------------
                         ORCA GEOMETRY RELAXATION STEP
------------------------------------------------------------------------------

Reading the OPT-File                    .... done
Getting information on internals        .... done
Copying old internal coords+grads       .... done
Making the new internal coordinates     .... (new redundants).... done
Validating the new internal coordinates .... (new redundants).... done
Calculating the B-matrix                .... done
Calculating the G,G- and P matrices     .... done
Transforming gradient to internals      .... done
Projecting the internal gradient        .... done
Number of atoms                         ....  37
Number of internal coordinates          .... 195
Current Energy                          ....   -78.382796883 Eh
Current gradient norm                   ....     0.118243997 Eh/bohr
Maximum allowed component of the step   ....  0.300
Current trust radius                    ....  0.300
Evaluating the initial hessian          ....  (Almloef) done
Projecting the Hessian                  .... done
Forming the augmented Hessian           .... done
Diagonalizing the augmented Hessian     .... done
Last element of RFO vector              ....  0.951639418
Lowest eigenvalues of augmented Hessian:
 -0.022463986  0.008737051  0.009067594  0.010621880  0.010642706
Length of the computed step             ....  0.322829437
Warning: the length of the step is outside the trust region - taking restricted step instead
The input lambda is                     ....    -0.022464
   iter:   1  x=   -0.028026  g=    2.556223 f(x)=     0.014219
   iter:   2  x=   -0.029139  g=    1.867250 f(x)=     0.002077
   iter:   3  x=   -0.029172  g=    1.765373 f(x)=     0.000058
   iter:   4  x=   -0.029172  g=    1.762526 f(x)=     0.000000
   iter:   5  x=   -0.029172  g=    1.762524 f(x)=     0.000000
   iter:   6  x=   -0.029172  g=    1.762524 f(x)=     0.000000
The output lambda is                    ....    -0.029172 (6 iterations)
The final length of the internal step   ....  0.300000000
Converting the step to cartesian space:
 Initial RMS(Int)=    0.0214834462
Transforming coordinates:
 Iter   0:  RMS(Cart)=    0.0903707497 RMS(Int)=    0.4481157569
 Iter   1:  RMS(Cart)=    0.0019956296 RMS(Int)=    0.0009707845
 Iter   2:  RMS(Cart)=    0.0001029803 RMS(Int)=    0.0000355454
 Iter   3:  RMS(Cart)=    0.0000061540 RMS(Int)=    0.0000036059
 Iter   4:  RMS(Cart)=    0.0000003810 RMS(Int)=    0.0000001578
 Iter   5:  RMS(Cart)=    0.0000000256 RMS(Int)=    0.0000000168
done
Storing new coordinates                 .... done

                                .--------------------.
          ----------------------|Geometry convergence|-------------------------
          Item                value                   Tolerance       Converged
          ---------------------------------------------------------------------
          RMS gradient        0.0074239208            0.0001000000      NO
          MAX gradient        0.0463681906            0.0003000000      NO
          RMS step            0.0214834462            0.0020000000      NO
          MAX step            0.0673746364            0.0040000000      NO
          ........................................................
          Max(Bonds)      0.0292      Max(Angles)    2.78
          Max(Dihed)        3.86      Max(Improp)    0.00
          ---------------------------------------------------------------------

The optimization has not yet converged - more geometry cycles are needed


    ---------------------------------------------------------------------------
                         Redundant Internal Coordinates
                            (Angstroem and degrees)

        Definition                    Value    dE/dq     Step     New-Value
    ----------------------------------------------------------------------------
     1. B(C   1,C   0)                1.5076  0.015521 -0.0189    1.4887   
     2. B(O   2,C   1)                1.2380  0.038973 -0.0205    1.2175   
     3. B(C   3,C   1)                1.5513  0.010910 -0.0154    1.5359   
     4. B(O   4,C   3)                1.4187  0.020563 -0.0204    1.3983   
     5. B(O   5,C   3)                1.4227  0.010046 -0.0101    1.4126   
     6. B(C   6,C   3)                1.5661  0.014902 -0.0221    1.5439   
     7. B(O   7,C   6)                1.4572  0.025713 -0.0292    1.4281   
     8. B(C   8,C   6)                1.5346 -0.000054 -0.0008    1.5338   
     9. B(O   9,C   8)                1.2342  0.046368 -0.0240    1.2102   
    10. B(O  10,C   8)                1.3494  0.021158 -0.0180    1.3314   
    11. B(C  11,O  10)                1.4470  0.012622 -0.0155    1.4315   
    12. B(C  12,C  11)                1.5370  0.009967 -0.0134    1.5236   
    13. B(O  13,C  12)                1.4281  0.011620 -0.0119    1.4162   
    14. B(P  14,O  13)                1.5963 -0.003473  0.0020    1.5983   
    15. B(O  15,P  14)                1.4894  0.033086 -0.0131    1.4763   
    16. B(O  16,P  14)                1.5933  0.002678 -0.0015    1.5917   
    17. B(O  17,P  14)                1.5935  0.003808 -0.0022    1.5913   
    18. B(C  18,C  11)                1.5274  0.000373  0.0005    1.5280   
    19. B(O  19,C  18)                1.4393  0.011564 -0.0123    1.4270   
    20. B(C  20,C  18)                1.5262  0.001161  0.0003    1.5265   
    21. B(C  20,C   6)                1.5508  0.009282 -0.0109    1.5399   
    22. B(O  21,C  20)                1.4231  0.015821 -0.0160    1.4072   
    23. B(H  22,C   0)                1.0908  0.002550 -0.0035    1.0873   
    24. B(H  23,C   0)                1.0927  0.003779 -0.0052    1.0875   
    25. B(H  24,C   0)                1.0942  0.003179 -0.0044    1.0898   
    26. B(H  25,O   4)                0.9803  0.004191 -0.0043    0.9760   
    27. B(H  26,O   5)                0.9739  0.008355 -0.0085    0.9655   
    28. B(H  27,O   7)                0.9840  0.010822 -0.0113    0.9727   
    29. B(H  28,C  11)                1.0942 -0.002181  0.0030    1.0972   
    30. B(H  29,C  12)                1.0932  0.000275 -0.0004    1.0928   
    31. B(H  30,C  12)                1.0948  0.001505 -0.0021    1.0927   
    32. B(H  31,O  16)                0.9751  0.015881 -0.0161    0.9589   
    33. B(H  32,O  17)                0.9748  0.013758 -0.0140    0.9609   
    34. B(H  33,C  18)                1.0961  0.000955 -0.0013    1.0948   
    35. B(H  34,O  19)                0.9781  0.011184 -0.0115    0.9666   
    36. B(H  35,C  20)                1.0988 -0.002693  0.0038    1.1026   
    37. B(H  36,O  21)                0.9834  0.006922 -0.0072    0.9761   
    38. A(H  22,C   0,H  24)          108.28 -0.004983    1.23    109.51   
    39. A(C   1,C   0,H  22)          110.68  0.004134   -0.84    109.84   
    40. A(H  22,C   0,H  23)          110.37  0.001724   -1.01    109.36   
    41. A(H  23,C   0,H  24)          108.35 -0.003736    1.00    109.34   
    42. A(C   1,C   0,H  23)          109.86  0.001825   -0.48    109.38   
    43. A(C   1,C   0,H  24)          109.25  0.000761    0.18    109.43   
    44. A(O   2,C   1,C   3)          120.63  0.005222   -0.60    120.03   
    45. A(C   0,C   1,C   3)          118.41  0.007836   -1.07    117.34   
    46. A(C   0,C   1,O   2)          120.95 -0.013054    1.67    122.63   
    47. A(O   5,C   3,C   6)          110.02  0.010416   -2.41    107.61   
    48. A(C   1,C   3,O   5)          108.84 -0.005020    1.36    110.20   
    49. A(O   4,C   3,C   6)          115.05  0.000985   -0.56    114.49   
    50. A(O   4,C   3,O   5)          106.27 -0.009193    2.78    109.05   
    51. A(C   1,C   3,O   4)          108.58  0.002568   -0.15    108.43   
    52. A(C   1,C   3,C   6)          107.94 -0.000257   -0.85    107.10   
    53. A(C   3,O   4,H  25)          106.90 -0.003053    0.46    107.36   
    54. A(C   3,O   5,H  26)          105.65 -0.007741    1.16    106.81   
    55. A(O   7,C   6,C  20)          107.73 -0.004271    0.94    108.67   
    56. A(O   7,C   6,C   8)          104.62 -0.001397    0.95    105.56   
    57. A(C   3,C   6,O   7)          108.87  0.003710   -1.21    107.66   
    58. A(C   8,C   6,C  20)          114.21  0.001800    0.30    114.51   
    59. A(C   3,C   6,C  20)          113.74  0.004873   -1.83    111.91   
    60. A(C   3,C   6,C   8)          107.19 -0.004969    0.99    108.18   
    61. A(C   6,O   7,H  27)          106.61 -0.000776    0.12    106.72   
    62. A(O   9,C   8,O  10)          118.82  0.005765   -0.60    118.22   
    63. A(C   6,C   8,O   9)          120.64 -0.000409    0.13    120.77   
    64. A(C   6,C   8,O  10)          120.21 -0.005548    0.53    120.74   
    65. A(C   8,O  10,C  11)          124.57  0.001140   -0.47    124.10   
    66. A(O  10,C  11,C  18)          111.53 -0.001835    0.50    112.03   
    67. A(C  12,C  11,C  18)          115.04  0.004743   -0.94    114.10   
    68. A(C  18,C  11,H  28)          107.24 -0.004041    1.09    108.33   
    69. A(O  10,C  11,H  28)          104.42  0.001695   -0.32    104.10   
    70. A(C  12,C  11,H  28)          109.58  0.001261   -0.56    109.02   
    71. A(O  10,C  11,C  12)          108.49 -0.002027    0.27    108.76   
    72. A(H  29,C  12,H  30)          108.51 -0.001946    0.74    109.25   
    73. A(O  13,C  12,H  30)          108.65 -0.004935    0.54    109.19   
    74. A(C  11,C  12,H  30)          111.42  0.004115   -1.10    110.32   
    75. A(O  13,C  12,H  29)          104.99 -0.004016    0.93    105.92   
    76. A(C  11,C  12,H  29)          110.92 -0.000963    0.24    111.16   
    77. A(C  11,C  12,O  13)          112.08  0.006954   -1.16    110.92   
    78. A(C  12,O  13,P  14)          118.25  0.008750   -1.01    117.24   
    79. A(O  16,P  14,O  17)          101.36 -0.002050    0.48    101.84   
    80. A(O  15,P  14,O  17)          115.30  0.002536   -0.12    115.18   
    81. A(O  13,P  14,O  17)          104.12 -0.005857    0.57    104.68   
    82. A(O  15,P  14,O  16)          113.61 -0.008093    1.01    114.62   
    83. A(O  13,P  14,O  16)          104.62  0.008476   -1.10    103.52   
    84. A(O  13,P  14,O  15)          116.16  0.004809   -0.80    115.37   
    85. A(P  14,O  16,H  31)          110.85  0.001648   -0.21    110.64   
    86. A(P  14,O  17,H  32)          110.76 -0.000828    0.11    110.87   
    87. A(C  20,C  18,H  33)          110.64  0.001112   -0.73    109.91   
    88. A(O  19,C  18,H  33)          107.99 -0.001736    0.83    108.82   
    89. A(C  11,C  18,H  33)          110.30 -0.000240   -0.34    109.96   
    90. A(C  11,C  18,O  19)          109.30 -0.000450    0.42    109.73   
    91. A(O  19,C  18,C  20)          108.07  0.000107    0.15    108.22   
    92. A(C  11,C  18,C  20)          110.46  0.001128   -0.28    110.19   
    93. A(C  18,O  19,H  34)          107.19 -0.004804    0.73    107.92   
    94. A(O  21,C  20,H  35)          106.54 -0.003663    1.71    108.25   
    95. A(C  18,C  20,H  35)          106.70 -0.003003    1.22    107.93   
    96. A(C   6,C  20,H  35)          108.06  0.000917   -0.33    107.73   
    97. A(C  18,C  20,O  21)          108.57 -0.000269   -0.80    107.77   
    98. A(C   6,C  20,O  21)          116.38  0.002318   -1.18    115.20   
    99. A(C   6,C  20,C  18)          110.11  0.002992   -0.33    109.79   
   100. A(C  20,O  21,H  36)          108.46  0.000916   -0.14    108.32   
   101. D(O   2,C   1,C   0,H  22)    121.67 -0.002856    0.77    122.44   
   102. D(O   2,C   1,C   0,H  24)      2.53  0.000278   -0.34      2.19   
   103. D(C   3,C   1,C   0,H  24)   -177.05 -0.000217    0.32   -176.73   
   104. D(C   3,C   1,C   0,H  23)     64.22  0.002790   -0.71     63.51   
   105. D(C   3,C   1,C   0,H  22)    -57.91 -0.003351    1.43    -56.47   
   106. D(O   2,C   1,C   0,H  23)   -116.20  0.003285   -1.37   -117.57   
   107. D(C   6,C   3,C   1,O   2)    -89.00 -0.002904    1.39    -87.61   
   108. D(O   5,C   3,C   1,O   2)     30.39  0.006592   -1.22     29.17   
   109. D(O   4,C   3,C   1,C   0)    -34.76 -0.005171    2.07    -32.69   
   110. D(C   6,C   3,C   1,C   0)     90.58 -0.002490    0.74     91.32   
   111. D(O   5,C   3,C   1,C   0)   -150.03  0.007006   -1.87   -151.90   
   112. D(O   4,C   3,C   1,O   2)    145.66 -0.005585    2.72    148.38   
   113. D(H  25,O   4,C   3,C   6)     29.84 -0.000436    2.48     32.32   
   114. D(H  25,O   4,C   3,O   5)    -92.17 -0.007590    3.86    -88.31   
   115. D(H  25,O   4,C   3,C   1)    150.90  0.001816    0.89    151.79   
   116. D(H  26,O   5,C   3,O   4)    -69.15  0.001094    0.28    -68.86   
   117. D(H  26,O   5,C   3,C   6)    165.70 -0.000521    0.64    166.34   
   118. D(H  26,O   5,C   3,C   1)     47.61 -0.003274    2.26     49.87   
   119. D(O   7,C   6,C   3,O   5)    173.14 -0.002053    1.32    174.46   
   120. D(C  20,C   6,C   3,O   4)    173.31  0.001788   -0.96    172.34   
   121. D(C  20,C   6,C   3,C   1)     51.90 -0.001985    0.24     52.14   
   122. D(C   8,C   6,C   3,O   5)     60.50  0.000275    0.31     60.81   
   123. D(O   7,C   6,C   3,C   1)    -68.22 -0.002347    1.09    -67.14   
   124. D(O   7,C   6,C   3,O   4)     53.18  0.001426   -0.11     53.07   
   125. D(C   8,C   6,C   3,O   4)    -59.46  0.003755   -1.13    -60.58   
   126. D(C  20,C   6,C   3,O   5)    -66.73 -0.001692    0.47    -66.27   
   127. D(C   8,C   6,C   3,C   1)    179.14 -0.000018    0.07    179.21   
   128. D(H  27,O   7,C   6,C  20)     51.72 -0.001735    0.74     52.46   
   129. D(H  27,O   7,C   6,C   8)    -70.18 -0.000918   -0.60    -70.77   
   130. D(H  27,O   7,C   6,C   3)    175.49  0.003825   -1.66    173.84   
   131. D(O   9,C   8,C   6,C   3)     44.80 -0.002008    1.72     46.52   
   132. D(O  10,C   8,C   6,C  20)    -14.89  0.000196    0.87    -14.02   
   133. D(O  10,C   8,C   6,O   7)    102.65 -0.004950    2.78    105.43   
   134. D(O  10,C   8,C   6,C   3)   -141.84 -0.003564    2.28   -139.56   
   135. D(O   9,C   8,C   6,C  20)    171.76  0.001752    0.31    172.07   
   136. D(O   9,C   8,C   6,O   7)    -70.70 -0.003394    2.22    -68.48   
   137. D(C  11,O  10,C   8,O   9)   -175.96 -0.001116    0.29   -175.67   
   138. D(C  11,O  10,C   8,C   6)     10.57  0.000802   -0.30     10.26   
   139. D(H  28,C  11,O  10,C   8)   -145.40  0.004079   -1.85   -147.24   
   140. D(C  18,C  11,O  10,C   8)    -29.91 -0.000586   -0.51    -30.42   
   141. D(C  12,C  11,O  10,C   8)     97.80  0.002701   -1.17     96.64   
   142. D(H  30,C  12,C  11,H  28)     74.99 -0.000036   -0.42     74.57   
   143. D(H  30,C  12,C  11,C  18)    -45.89  0.000987   -0.77    -46.66   
   144. D(H  30,C  12,C  11,O  10)   -171.58  0.001541   -0.95   -172.53   
   145. D(H  29,C  12,C  11,H  28)   -164.00 -0.000367   -0.07   -164.07   
   146. D(H  29,C  12,C  11,C  18)     75.12  0.000656   -0.42     74.70   
   147. D(O  13,C  12,C  11,H  28)    -47.00 -0.001602    0.51    -46.49   
   148. D(O  13,C  12,C  11,O  10)     66.43 -0.000025   -0.02     66.41   
   149. D(O  13,C  12,C  11,C  18)   -167.89 -0.000579    0.16   -167.72   
   150. D(H  29,C  12,C  11,O  10)    -50.57  0.001209   -0.60    -51.16   
   151. D(P  14,O  13,C  12,H  30)    -57.74 -0.002547   -1.00    -58.75   
   152. D(P  14,O  13,C  12,H  29)   -173.67  0.004002   -2.57   -176.24   
   153. D(P  14,O  13,C  12,C  11)     65.82  0.003870   -2.80     63.02   
   154. D(O  17,P  14,O  13,C  12)    -95.50  0.000368   -1.78    -97.28   
   155. D(O  16,P  14,O  13,C  12)    158.51  0.001757   -2.13    156.39   
   156. D(O  15,P  14,O  13,C  12)     32.41  0.002285   -2.03     30.39   
   157. D(H  31,O  16,P  14,O  17)    159.50  0.000624    0.07    159.57   
   158. D(H  31,O  16,P  14,O  15)     35.20  0.003280   -0.65     34.55   
   159. D(H  31,O  16,P  14,O  13)    -92.48 -0.003859    0.52    -91.96   
   160. D(H  32,O  17,P  14,O  16)     48.32  0.005208   -0.31     48.01   
   161. D(H  32,O  17,P  14,O  15)    171.46 -0.004819    1.21    172.67   
   162. D(H  32,O  17,P  14,O  13)    -60.10 -0.001472    0.55    -59.56   
   163. D(O  19,C  18,C  11,O  10)    -65.14 -0.000572    0.21    -64.93   
   164. D(H  33,C  18,C  11,C  12)     52.18  0.002492   -0.89     51.29   
   165. D(H  33,C  18,C  11,O  10)    176.28  0.001972   -0.86    175.42   
   166. D(C  20,C  18,C  11,H  28)    167.39 -0.001251    0.97    168.37   
   167. D(C  20,C  18,C  11,C  12)    -70.45  0.000484    0.45    -70.00   
   168. D(C  20,C  18,C  11,O  10)     53.65 -0.000036    0.48     54.13   
   169. D(O  19,C  18,C  11,H  28)     48.60 -0.001786    0.70     49.31   
   170. D(H  33,C  18,C  11,H  28)    -69.98  0.000758   -0.37    -70.35   
   171. D(O  19,C  18,C  11,C  12)    170.76 -0.000051    0.18    170.94   
   172. D(H  34,O  19,C  18,H  33)     51.76 -0.001017    0.65     52.41   
   173. D(H  34,O  19,C  18,C  20)    171.48 -0.000605    0.33    171.81   
   174. D(H  34,O  19,C  18,C  11)    -68.26  0.000560    0.33    -67.93   
   175. D(H  35,C  20,C  18,H  33)     61.80 -0.004024    1.75     63.56   
   176. D(H  35,C  20,C  18,C  11)   -175.77 -0.002799    0.64   -175.13   
   177. D(O  21,C  20,C  18,H  33)    -52.68  0.001875   -0.46    -53.14   
   178. D(O  21,C  20,C  18,O  19)   -170.71  0.003279   -1.14   -171.85   
   179. D(C   6,C  20,C  18,H  33)    178.84 -0.003063    1.88    180.72   
   180. D(C   6,C  20,C  18,O  19)     60.81 -0.001659    1.20     62.01   
   181. D(C   6,C  20,C  18,C  11)    -58.73 -0.001838    0.76    -57.97   
   182. D(H  35,C  20,C   6,C   8)    155.06 -0.000598    0.06    155.12   
   183. D(H  35,C  20,C   6,O   7)     39.32  0.002891   -1.89     37.43   
   184. D(H  35,C  20,C   6,C   3)    -81.44 -0.001885    0.13    -81.31   
   185. D(O  21,C  20,C   6,C   8)    -85.20 -0.003125    1.25    -83.95   
   186. D(O  21,C  20,C  18,C  11)     69.75  0.003100   -1.58     68.17   
   187. D(O  21,C  20,C   6,O   7)    159.06  0.000365   -0.71    158.35   
   188. D(O  21,C  20,C   6,C   3)     38.29 -0.004412    1.32     39.62   
   189. D(C  18,C  20,C   6,C   8)     38.87  0.000845   -1.03     37.84   
   190. D(H  35,C  20,C  18,O  19)    -56.23 -0.002620    1.08    -55.15   
   191. D(C  18,C  20,C   6,O   7)    -76.87  0.004334   -2.99    -79.86   
   192. D(C  18,C  20,C   6,C   3)    162.37 -0.000443   -0.96    161.41   
   193. D(H  36,O  21,C  20,H  35)     49.72  0.000252    1.22     50.93   
   194. D(H  36,O  21,C  20,C  18)    164.31 -0.005209    3.11    167.42   
   195. D(H  36,O  21,C  20,C   6)    -70.83  0.000347    1.11    -69.72   
    ----------------------------------------------------------------------------

         *************************************************************
         *                GEOMETRY OPTIMIZATION CYCLE   2            *
         *************************************************************
---------------------------------
CARTESIAN COORDINATES (ANGSTROEM)
---------------------------------
  C    -4.538276    0.682615   -0.049044
  C    -3.371821    0.192126   -0.833345
  O    -3.372876   -0.879899   -1.410552
  C    -2.124109    1.086703   -0.875838
  O    -2.536646    2.421819   -0.825745
  O    -1.410357    0.869779   -2.075393
  C    -1.214781    0.653188    0.294162
  O    -1.882124    0.992818    1.510163
  C     0.050574    1.519475    0.263377
  O    -0.023811    2.719274    0.123784
  O     1.245913    0.987193    0.509236
  C     1.493321   -0.419387    0.607071
  C     2.006057   -0.921454   -0.736907
  O     3.278629   -0.373182   -1.029291
  P     4.480336   -0.747539   -0.044262
  O     4.382561   -2.073501    0.597305
  O     5.777022   -0.540370   -0.943862
  O     4.578548    0.484078    0.958549
  C     0.277467   -1.179662    1.134623
  O     0.005499   -0.780862    2.477479
  C    -0.950773   -0.863875    0.284862
  O    -0.748306   -1.428582   -0.988029
  H    -4.236179    0.880710    0.976507
  H    -4.914514    1.599279   -0.497162
  H    -5.324135   -0.072366   -0.057683
  H    -1.817381    2.933398   -0.409203
  H    -2.049684    0.933158   -2.796059
  H    -1.346771    0.626530    2.234994
  H     2.297891   -0.498077    1.348952
  H     1.349746   -0.607001   -1.552134
  H     2.077716   -2.011782   -0.732307
  H     6.021912   -1.359794   -1.377608
  H     4.753274    1.300122    0.482277
  H     0.474526   -2.256490    1.119055
  H     0.728660   -1.098931    3.034398
  H    -1.820261   -1.358925    0.748065
  H    -1.596845   -1.410585   -1.470234

----------------------------
CARTESIAN COORDINATES (A.U.)
----------------------------
  NO LB    ZA    FRAG    MASS        X           Y           Z
   0 C   6.0000    0    12.011   -8.576099    1.289955   -0.092679
   1 C   6.0000    0    12.011   -6.371819    0.363065   -1.574794
   2 O   8.0000    0    15.999   -6.373812   -1.662769   -2.665557
   3 C   6.0000    0    12.011   -4.013984    2.053571   -1.655093
   4 O   8.0000    0    15.999   -4.793567    4.576575   -1.560433
   5 O   8.0000    0    15.999   -2.665189    1.643644   -3.921924
   6 C   6.0000    0    12.011   -2.295604    1.234347    0.555886
   7 O   8.0000    0    15.999   -3.556699    1.876154    2.853795
   8 C   6.0000    0    12.011    0.095572    2.871392    0.497711
   9 O   8.0000    0    15.999   -0.044996    5.138682    0.233917
  10 O   8.0000    0    15.999    2.354433    1.865525    0.962316
  11 C   6.0000    0    12.011    2.821968   -0.792527    1.147198
  12 C   6.0000    0    12.011    3.790899   -1.741295   -1.392553
  13 O   8.0000    0    15.999    6.195711   -0.705211   -1.945078
  14 P  15.0000    0    30.974    8.466608   -1.412643   -0.083644
  15 O   8.0000    0    15.999    8.281840   -3.918349    1.128742
  16 O   8.0000    0    15.999   10.916989   -1.021151   -1.783641
  17 O   8.0000    0    15.999    8.652202    0.914775    1.811396
  18 C   6.0000    0    12.011    0.524337   -2.229238    2.144126
  19 O   8.0000    0    15.999    0.010391   -1.475615    4.681758
  20 C   6.0000    0    12.011   -1.796700   -1.632487    0.538312
  21 O   8.0000    0    15.999   -1.414093   -2.699628   -1.867104
  22 H   1.0000    0     1.008   -8.005219    1.664300    1.845330
  23 H   1.0000    0     1.008   -9.287085    3.022200   -0.939501
  24 H   1.0000    0     1.008  -10.061157   -0.136753   -0.109005
  25 H   1.0000    0     1.008   -3.434353    5.543320   -0.773282
  26 H   1.0000    0     1.008   -3.873342    1.763412   -5.283787
  27 H   1.0000    0     1.008   -2.545028    1.183969    4.223526
  28 H   1.0000    0     1.008    4.342384   -0.941230    2.549149
  29 H   1.0000    0     1.008    2.550651   -1.147066   -2.933108
  30 H   1.0000    0     1.008    3.926314   -3.801718   -1.383859
  31 H   1.0000    0     1.008   11.379764   -2.569639   -2.603301
  32 H   1.0000    0     1.008    8.982386    2.456875    0.911371
  33 H   1.0000    0     1.008    0.896725   -4.264149    2.114707
  34 H   1.0000    0     1.008    1.376967   -2.076679    5.734182
  35 H   1.0000    0     1.008   -3.439796   -2.567996    1.413638
  36 H   1.0000    0     1.008   -3.017599   -2.665620   -2.778339

      -----------------------------------------------------------      
     |                   =====================                   |     
     |                           x T B                           |     
     |                   =====================                   |     
     |                         S. Grimme                         |     
     |          Mulliken Center for Theoretical Chemistry        |     
     |                    University of Bonn                     |     
      -----------------------------------------------------------      

   * xtb version 6.5.1 (579679a) compiled by 'ehlert@majestix' on 2022-07-11

   xtb is free software: you can redistribute it and/or modify it under
   the terms of the GNU Lesser General Public License as published by
   the Free Software Foundation, either version 3 of the License, or
   (at your option) any later version.
   
   xtb is distributed in the hope that it will be useful,
   but WITHOUT ANY WARRANTY; without even the implied warranty of
   MERCHANTABILITY or FITNESS FOR A PARTICULAR PURPOSE.  See the
   GNU Lesser General Public License for more details.
   
   Cite this work as:
   * C. Bannwarth, E. Caldeweyher, S. Ehlert, A. Hansen, P. Pracht,
     J. Seibert, S. Spicher, S. Grimme, WIREs Comput. Mol. Sci., 2020, 11,
     e01493. DOI: 10.1002/wcms.1493
   
   for GFN2-xTB:
   * C. Bannwarth, S. Ehlert and S. Grimme., J. Chem. Theory Comput., 2019,
     15, 1652-1671. DOI: 10.1021/acs.jctc.8b01176
   for GFN1-xTB:
   * S. Grimme, C. Bannwarth, P. Shushkov, J. Chem. Theory Comput., 2017,
     13, 1989-2009. DOI: 10.1021/acs.jctc.7b00118
   for GFN0-xTB:
   * P. Pracht, E. Caldeweyher, S. Ehlert, S. Grimme, ChemRxiv, 2019, preprint.
     DOI: 10.26434/chemrxiv.8326202.v1
   for GFN-FF:
   * S. Spicher and S. Grimme, Angew. Chem. Int. Ed., 2020, 59, 15665-15673.
     DOI: 10.1002/anie.202004239
   
   for ALPB and GBSA implicit solvation:
   * S. Ehlert, M. Stahn, S. Spicher, S. Grimme, J. Chem. Theory Comput.,
     2021, 17, 4250-4261. DOI: 10.1021/acs.jctc.1c00471
   
   for DFT-D4:
   * E. Caldeweyher, C. Bannwarth and S. Grimme, J. Chem. Phys., 2017,
     147, 034112. DOI: 10.1063/1.4993215
   * E. Caldeweyher, S. Ehlert, A. Hansen, H. Neugebauer, S. Spicher,
     C. Bannwarth and S. Grimme, J. Chem. Phys., 2019, 150, 154122.
     DOI: 10.1063/1.5090222
   * E. Caldeweyher, J.-M. Mewes, S. Ehlert and S. Grimme, Phys. Chem. Chem. Phys.
     2020, 22, 8499-8512. DOI: 10.1039/D0CP00502A
   
   for sTDA-xTB:
   * S. Grimme and C. Bannwarth, J. Chem. Phys., 2016, 145, 054103.
     DOI: 10.1063/1.4959605
   
   in the mass-spec context:
   * V. Asgeirsson, C. Bauer and S. Grimme, Chem. Sci., 2017, 8, 4879.
     DOI: 10.1039/c7sc00601b
   * J. Koopman and S. Grimme, ACS Omega 2019, 4, 12, 15120-15133.
     DOI: 10.1021/acsomega.9b02011
   
   for metadynamics refer to:
   * S. Grimme, J. Chem. Theory Comput., 2019, 155, 2847-2862
     DOI: 10.1021/acs.jctc.9b00143
   
   for SPH calculations refer to:
   * S. Spicher and S. Grimme, J. Chem. Theory Comput., 2021, 17, 1701-1714
     DOI: 10.1021/acs.jctc.0c01306
   
   with help from (in alphabetical order)
   P. Atkinson, C. Bannwarth, F. Bohle, G. Brandenburg, E. Caldeweyher
   M. Checinski, S. Dohm, S. Ehlert, S. Ehrlich, I. Gerasimov, C. Hölzer
   A. Katbashev, J. Koopman, C. Lavigne, S. Lehtola, F. März, M. Müller,
   F. Musil, H. Neugebauer, J. Pisarek, C. Plett, P. Pracht, F. Pultar,
   J. Seibert, P. Shushkov, S. Spicher, M. Stahn, M. Steiner, T. Strunk,
   J. Stückrath, T. Rose, and J. Unsleber
   
 * started run on 2023/12/06 at 21:16:49.922     

           -------------------------------------------------
          |                Calculation Setup                |
           -------------------------------------------------

          program call               : otool_xtb /tmp/22_XTB.xyz --grad -c 0 -u 0 -P 1 --namespace /tmp/22 --input /tmp/22_XTB.input.tmp --acc 1.000000
          calculation namespace      : /tmp/22
          coordinate file            : /tmp/22_XTB.xyz
          omp threads                :                     1

   ID    Z sym.   atoms
    1    6 C      1, 2, 4, 7, 9, 12, 13, 19, 21
    2    8 O      3, 5, 6, 8, 10, 11, 14, 16-18, 20, 22
    3   15 P      15
    4    1 H      23-37

           -------------------------------------------------
          |                 G F N 2 - x T B                 |
           -------------------------------------------------

        Reference                      10.1021/acs.jctc.8b01176
      * Hamiltonian:
        H0-scaling (s, p, d)           1.850000    2.230000    2.230000
        zeta-weighting                 0.500000
      * Dispersion:
        s8                             2.700000
        a1                             0.520000
        a2                             5.000000
        s9                             5.000000
      * Repulsion:
        kExp                           1.500000    1.000000
        rExp                           1.000000
      * Coulomb:
        alpha                          2.000000
        third order                    shell-resolved
        anisotropic                    true
        a3                             3.000000
        a5                             4.000000
        cn-shift                       1.200000
        cn-exp                         4.000000
        max-rad                        5.000000

q/qsh data taken from xtbrestart
CAMM data taken from xtbrestart

          ...................................................
          :                      SETUP                      :
          :.................................................:
          :  # basis functions                 109          :
          :  # atomic orbitals                 108          :
          :  # shells                           60          :
          :  # electrons                       128          :
          :  max. iterations                   250          :
          :  Hamiltonian                  GFN2-xTB          :
          :  restarted?                       true          :
          :  GBSA solvation                  false          :
          :  PC potential                    false          :
          :  electronic temp.          300.0000000     K    :
          :  accuracy                    1.0000000          :
          :  -> integral cutoff          0.2500000E+02      :
          :  -> integral neglect         0.1000000E-07      :
          :  -> SCF convergence          0.1000000E-05 Eh   :
          :  -> wf. convergence          0.1000000E-03 e    :
          :  Broyden damping             0.4000000          :
          ...................................................

 iter      E             dE          RMSdq      gap      omega  full diag
   1    -78.9365170 -0.789365E+02  0.353E-01    3.31       0.0  T
   2    -78.9366599 -0.142855E-03  0.212E-01    3.28       1.0  T
   3    -78.9366073  0.526413E-04  0.640E-02    3.30       1.0  T
   4    -78.9366892 -0.819675E-04  0.103E-02    3.28       1.6  T
   5    -78.9366903 -0.108703E-05  0.526E-03    3.29       3.1  T
   6    -78.9366904 -0.125150E-06  0.248E-03    3.29       6.6  T
   7    -78.9366905 -0.471445E-07  0.897E-04    3.29      18.3  T
   8    -78.9366905 -0.330590E-08  0.240E-04    3.29      68.6  T

   *** convergence criteria satisfied after 8 iterations ***

         #    Occupation            Energy/Eh            Energy/eV
      -------------------------------------------------------------
         1        2.0000           -0.7708120             -20.9749
       ...           ...                  ...                  ...
        58        2.0000           -0.4531700             -12.3314
        59        2.0000           -0.4516124             -12.2890
        60        2.0000           -0.4480133             -12.1911
        61        2.0000           -0.4463326             -12.1453
        62        2.0000           -0.4382457             -11.9253
        63        2.0000           -0.4278888             -11.6434
        64        2.0000           -0.4095282             -11.1438 (HOMO)
        65                         -0.2887809              -7.8581 (LUMO)
        66                         -0.2633155              -7.1652
        67                         -0.0782122              -2.1283
        68                         -0.0594535              -1.6178
        69                         -0.0492443              -1.3400
       ...                                ...                  ...
       108                          1.2499745              34.0135
      -------------------------------------------------------------
                  HL-Gap            0.1207473 Eh            3.2857 eV
             Fermi-level           -0.3491545 Eh           -9.5010 eV

 SCC (total)                   0 d,  0 h,  0 min,  0.052 sec
 SCC setup                      ...        0 min,  0.000 sec (  0.483%)
 Dispersion                     ...        0 min,  0.000 sec (  0.704%)
 classical contributions        ...        0 min,  0.000 sec (  0.146%)
 integral evaluation            ...        0 min,  0.009 sec ( 16.550%)
 iterations                     ...        0 min,  0.016 sec ( 30.682%)
 molecular gradient             ...        0 min,  0.027 sec ( 50.968%)
 printout                       ...        0 min,  0.000 sec (  0.437%)

         :::::::::::::::::::::::::::::::::::::::::::::::::::::
         ::                     SUMMARY                     ::
         :::::::::::::::::::::::::::::::::::::::::::::::::::::
         :: total energy             -78.396676146171 Eh    ::
         :: gradient norm              0.055856681779 Eh/a0 ::
         :: HOMO-LUMO gap              3.285700793253 eV    ::
         ::.................................................::
         :: SCC energy               -78.936690488345 Eh    ::
         :: -> isotropic ES            0.289474331276 Eh    ::
         :: -> anisotropic ES         -0.014107065552 Eh    ::
         :: -> anisotropic XC         -0.011015574871 Eh    ::
         :: -> dispersion             -0.041009223489 Eh    ::
         :: repulsion energy           0.539487765020 Eh    ::
         :: add. restraining           0.000000000000 Eh    ::
         :: total charge              -0.000000000000 e     ::
         :::::::::::::::::::::::::::::::::::::::::::::::::::::


Property printout bound to 'properties.out'

           -------------------------------------------------
          | TOTAL ENERGY              -78.396676146171 Eh   |
          | GRADIENT NORM               0.055856681779 Eh/α |
          | HOMO-LUMO GAP               3.285700793253 eV   |
           -------------------------------------------------

------------------------------------------------------------------------
 * finished run on 2023/12/06 at 21:16:49.989     
------------------------------------------------------------------------
 total:
 * wall-time:     0 d,  0 h,  0 min,  0.067 sec
 *  cpu-time:     0 d,  0 h,  0 min,  0.064 sec
 * ratio c/w:     0.952 speedup
 SCF:
 * wall-time:     0 d,  0 h,  0 min,  0.052 sec
 *  cpu-time:     0 d,  0 h,  0 min,  0.052 sec
 * ratio c/w:     0.994 speedup


-------------------------   --------------------
FINAL SINGLE POINT ENERGY       -78.396676146170
-------------------------   --------------------

------------------------------------------------------------------------------
                         ORCA GEOMETRY RELAXATION STEP
------------------------------------------------------------------------------

Reading the OPT-File                    .... done
Getting information on internals        .... done
Copying old internal coords+grads       .... done
Making the new internal coordinates     .... (new redundants).... done
Validating the new internal coordinates .... (new redundants).... done
Calculating the B-matrix                .... done
Calculating the G,G- and P matrices     .... done
Transforming gradient to internals      .... done
Projecting the internal gradient        .... done
Number of atoms                         ....  37
Number of internal coordinates          .... 195
Current Energy                          ....   -78.396676146 Eh
Current gradient norm                   ....     0.055856682 Eh/bohr
Maximum allowed component of the step   ....  0.300
Current trust radius                    ....  0.300
Updating the Hessian (BFGS)             .... done
Forming the augmented Hessian           .... done
Diagonalizing the augmented Hessian     .... done
Last element of RFO vector              ....  0.948424760
Lowest eigenvalues of augmented Hessian:
 -0.008464398  0.008750437  0.009166828  0.010630656  0.010756126
Length of the computed step             ....  0.334240881
Warning: the length of the step is outside the trust region - taking restricted step instead
The input lambda is                     ....    -0.008464
   iter:   1  x=   -0.011770  g=    6.569719 f(x)=     0.021717
   iter:   2  x=   -0.012571  g=    4.548985 f(x)=     0.003643
   iter:   3  x=   -0.012605  g=    4.199541 f(x)=     0.000143
   iter:   4  x=   -0.012605  g=    4.185610 f(x)=     0.000000
   iter:   5  x=   -0.012605  g=    4.185587 f(x)=     0.000000
   iter:   6  x=   -0.012605  g=    4.185587 f(x)=    -0.000000
The output lambda is                    ....    -0.012605 (6 iterations)
The final length of the internal step   ....  0.300000000
Converting the step to cartesian space:
 Initial RMS(Int)=    0.0214834462
Transforming coordinates:
 Iter   0:  RMS(Cart)=    0.1062884903 RMS(Int)=    0.4480062665
 Iter   1:  RMS(Cart)=    0.0046384371 RMS(Int)=    0.0023716312
 Iter   2:  RMS(Cart)=    0.0003625548 RMS(Int)=    0.0001141047
 Iter   3:  RMS(Cart)=    0.0000376368 RMS(Int)=    0.0000210759
 Iter   4:  RMS(Cart)=    0.0000033330 RMS(Int)=    0.0000013132
 Iter   5:  RMS(Cart)=    0.0000003527 RMS(Int)=    0.0000002041
 Iter   6:  RMS(Cart)=    0.0000000324 RMS(Int)=    0.0000000148
done
Storing new coordinates                 .... done

                                .--------------------.
          ----------------------|Geometry convergence|-------------------------
          Item                value                   Tolerance       Converged
          ---------------------------------------------------------------------
          Energy change      -0.0138792634            0.0000050000      NO
[...]
     87      -0.000150   0.000028   0.000007
     88       0.000025  -0.000149   0.000100
     89      -0.000559   0.000134  -0.000067
     90      -0.000068  -0.000299  -0.000256
     91      -0.000065  -0.000784   0.000216
     92      -0.000010   0.000213  -0.000109
     93       0.000140   0.005819   0.405041
     94      -0.000406  -0.013434  -0.844979
     95      -0.000153  -0.005244  -0.343229
     96       0.000129   0.225224  -0.003281
     97      -0.000692  -0.763146   0.012239
     98       0.000483   0.602278  -0.008423
     99      -0.000018  -0.000087  -0.000029
    100      -0.000020  -0.000124   0.000143
    101      -0.000054   0.000018   0.000013
    102       0.004381  -0.000294  -0.000379
    103      -0.001522   0.000244   0.000085
    104       0.003366  -0.000392  -0.000160
    105      -0.000575  -0.000078   0.000135
    106      -0.000164  -0.000001   0.000047
    107       0.000193   0.000015  -0.000067
    108      -0.008522   0.000542  -0.000569
    109       0.002079  -0.000157   0.000059
    110      -0.006795   0.000369  -0.000378


-----------
IR SPECTRUM
-----------

 Mode   freq       eps      Int      T**2         TX        TY        TZ
       cm**-1   L/(mol*cm) km/mol    a.u.
----------------------------------------------------------------------------
  6:     27.08   0.000332    1.68  0.003831  ( 0.047157 -0.036825  0.015856)
  7:     28.87   0.000463    2.34  0.005006  ( 0.001917  0.067437  0.021332)
  8:     43.12   0.001163    5.88  0.008419  ( 0.000397 -0.064005 -0.065741)
  9:     66.48   0.002038   10.30  0.009566  ( 0.056873  0.018908 -0.077294)
 10:     69.63   0.000246    1.25  0.001104  (-0.023607  0.022600 -0.006009)
 11:     77.23   0.001047    5.29  0.004232  ( 0.051887 -0.036290  0.014921)
 12:    105.08   0.000648    3.27  0.001924  ( 0.030851 -0.023775  0.020163)
 13:    127.17   0.000138    0.70  0.000340  (-0.016961  0.006451 -0.003233)
 14:    152.79   0.001461    7.38  0.002983  (-0.049018 -0.023510 -0.005290)
 15:    157.89   0.000137    0.69  0.000271  ( 0.012929  0.001591 -0.010053)
 16:    173.98   0.003357   16.96  0.006021  (-0.030189 -0.062026 -0.035533)
 17:    186.07   0.003865   19.53  0.006481  (-0.061040  0.038307 -0.035891)
 18:    191.57   0.000988    4.99  0.001610  ( 0.021209  0.031797 -0.012205)
 19:    200.65   0.006946   35.10  0.010802  (-0.019550  0.008451 -0.101727)
 20:    206.83   0.003868   19.54  0.005835  (-0.063603 -0.041966 -0.005375)
 21:    237.71   0.007582   38.32  0.009954  ( 0.039429  0.088014 -0.025544)
 22:    240.48   0.005332   26.95  0.006919  (-0.033861 -0.027815  0.070703)
 23:    242.94   0.009755   49.30  0.012530  ( 0.072634  0.081405  0.025049)
 24:    262.79   0.006077   30.71  0.007216  (-0.048112 -0.068774 -0.013095)
 25:    286.42   0.007872   39.78  0.008577  (-0.087161  0.011194 -0.029241)
 26:    290.39   0.004081   20.62  0.004385  (-0.035074  0.005472  0.055903)
 27:    297.98   0.026714  135.00  0.027976  (-0.137375 -0.073060 -0.061374)
 28:    319.58   0.003876   19.59  0.003785  (-0.007020 -0.048200  0.037584)
 29:    327.94   0.011456   57.89  0.010901  ( 0.030847 -0.075066  0.065689)
 30:    334.88   0.003563   18.01  0.003321  ( 0.040329  0.033916 -0.023321)
 31:    354.23   0.003309   16.72  0.002915  (-0.007946 -0.046639 -0.026009)
 32:    367.59   0.006215   31.41  0.005276  ( 0.060092  0.036367 -0.018516)
 33:    375.81   0.003894   19.68  0.003234  (-0.006833 -0.056319 -0.003895)
 34:    381.25   0.004477   22.63  0.003665  (-0.025030  0.003324  0.055021)
 35:    406.02   0.029068  146.90  0.022342  (-0.125525  0.080579  0.009598)
 36:    420.79   0.004689   23.69  0.003477  ( 0.010599  0.006702 -0.057619)
 37:    448.29   0.010867   54.92  0.007565  ( 0.072913  0.045459  0.013482)
 38:    460.69   0.004452   22.50  0.003015  ( 0.054645  0.000479 -0.005392)
 39:    469.51   0.014005   70.77  0.009308  (-0.060056 -0.075400 -0.004036)
 40:    489.17   0.001950    9.85  0.001244  ( 0.006518  0.029241  0.018610)
 41:    507.23   0.016234   82.04  0.009988  (-0.054074 -0.079203  0.028117)
 42:    526.57   0.003724   18.82  0.002207  ( 0.032733  0.033620 -0.002261)
 43:    541.64   0.021017  106.21  0.012109  (-0.016390  0.103389 -0.033922)
 44:    545.73   0.018313   92.54  0.010472  ( 0.089619  0.041829 -0.026279)
 45:    564.75   0.005342   27.00  0.002952  ( 0.002667 -0.040476  0.036144)
 46:    569.95   0.019833  100.23  0.010859  (-0.074666 -0.060091 -0.040900)
 47:    594.01   0.012976   65.57  0.006817  ( 0.004095 -0.040200  0.071999)
 48:    614.02   0.028214  142.58  0.014339  ( 0.049557  0.055601 -0.093764)
 49:    624.70   0.000651    3.29  0.000325  (-0.011067  0.000120  0.014234)
 50:    679.76   0.002789   14.09  0.001280  (-0.030625 -0.014066 -0.012027)
 51:    717.00   0.007247   36.62  0.003154  ( 0.022540  0.003985 -0.051285)
 52:    733.56   0.026948  136.18  0.011464  (-0.092094  0.004021 -0.054466)
 53:    780.67   0.003025   15.29  0.001209  (-0.021160  0.027443 -0.002884)
 54:    816.89   0.028521  144.13  0.010895  ( 0.103361  0.013060  0.006416)
 55:    845.15   0.041473  209.59  0.015314  (-0.120187  0.001188  0.029450)
 56:    848.39   0.000802    4.05  0.000295  ( 0.006598  0.001724  0.015765)
 57:    903.65   0.062290  314.79  0.021511  (-0.094244 -0.039330  0.105273)
 58:    909.97   0.022709  114.76  0.007788  (-0.027143 -0.063243 -0.055240)
 59:    912.27   0.081935  414.07  0.028028  ( 0.030215  0.129567  0.101624)
 60:    952.07   0.004579   23.14  0.001501  ( 0.038263  0.003788 -0.004726)
 61:    982.14   0.005538   27.99  0.001760  (-0.003356 -0.032168  0.026712)
 62:    990.43   0.005841   29.52  0.001840  (-0.035175  0.002629 -0.024417)
 63:    993.08   0.007793   39.38  0.002449  (-0.042309  0.019965  0.016132)
 64:   1016.12   0.005406   27.32  0.001660  ( 0.034461  0.018965 -0.010631)
 65:   1057.15   0.002382   12.04  0.000703  ( 0.022395 -0.012389  0.006947)
 66:   1069.80   0.040645  205.41  0.011856  ( 0.064311  0.020166 -0.085521)
 67:   1098.87   0.019568   98.89  0.005557  ( 0.071543  0.005398 -0.020239)
 68:   1099.78   0.016125   81.49  0.004576  (-0.033864  0.003719  0.058437)
 69:   1110.46   0.007837   39.60  0.002202  ( 0.025893 -0.028772 -0.026534)
 70:   1112.70   0.008538   43.15  0.002394  ( 0.025703  0.007990  0.040865)
 71:   1118.56   0.005093   25.74  0.001421  ( 0.014984 -0.009987  0.033116)
 72:   1131.07   0.023676  119.65  0.006532  ( 0.033786  0.061747  0.039725)
 73:   1143.56   0.014375   72.64  0.003923  (-0.028508  0.022930 -0.050836)
 74:   1178.02   0.076374  385.96  0.020232  ( 0.117988 -0.079193 -0.006252)
 75:   1195.65   0.002120   10.72  0.000553  ( 0.007523 -0.020487 -0.008783)
 76:   1200.69   0.009341   47.20  0.002428  ( 0.003579 -0.048414 -0.008421)
 77:   1206.87   0.014150   71.51  0.003659  (-0.009815 -0.003077  0.059607)
 78:   1236.62   0.047980  242.47  0.012108  (-0.079907  0.057033  0.049696)
 79:   1251.13   0.003308   16.72  0.000825  (-0.027366 -0.008453 -0.002176)
 80:   1260.01   0.017517   88.52  0.004338  ( 0.046327 -0.026211  0.038796)
 81:   1279.87   0.063537  321.09  0.015492  ( 0.011264  0.095227 -0.079354)
 82:   1287.66   0.025115  126.92  0.006087  ( 0.049974 -0.052997 -0.027941)
 83:   1303.20   0.021447  108.39  0.005136  ( 0.055780 -0.043709 -0.010673)
 84:   1306.61   0.001627    8.22  0.000389  ( 0.003972 -0.019250 -0.001495)
 85:   1315.74   0.012835   64.87  0.003044  (-0.004212 -0.040649 -0.037070)
 86:   1320.21   0.008189   41.39  0.001936  (-0.006639 -0.014519  0.040999)
 87:   1331.42   0.001045    5.28  0.000245  (-0.003908  0.010181 -0.011225)
 88:   1342.78   0.052769  266.68  0.012264  (-0.093913  0.047885  0.033927)
 89:   1353.86   0.011140   56.29  0.002568  ( 0.030133 -0.025417 -0.031838)
 90:   1363.15   0.000656    3.31  0.000150  (-0.003845  0.010362  0.005292)
 91:   1408.73   0.003689   18.64  0.000817  ( 0.007823  0.023986 -0.013446)
 92:   1424.31   0.009690   48.97  0.002123  (-0.020326 -0.038363 -0.015432)
 93:   1432.28   0.002761   13.95  0.000602  (-0.002482 -0.024328 -0.001905)
 94:   1729.44   0.088918  449.36  0.016045  ( 0.019030 -0.123989  0.017582)
 95:   1757.31   0.056777  286.93  0.010083  ( 0.000192 -0.084309 -0.054539)
 96:   2832.99   0.010498   53.05  0.001156  (-0.024153 -0.018812  0.014804)
 97:   2909.00   0.000207    1.05  0.000022  ( 0.003057  0.002994  0.001986)
 98:   2910.59   0.003713   18.77  0.000398  ( 0.000067 -0.019944  0.000614)
 99:   2946.35   0.005455   27.57  0.000578  (-0.000226 -0.024036  0.000197)
100:   2992.13   0.000022    0.11  0.000002  (-0.000252 -0.000466  0.001423)
101:   3014.57   0.002398   12.12  0.000248  ( 0.009010 -0.011821  0.005226)
102:   3032.09   0.000557    2.81  0.000057  (-0.000369  0.000995 -0.007496)
103:   3060.00   0.000397    2.01  0.000041  ( 0.001438 -0.005795 -0.002204)
104:   3282.73   0.024876  125.71  0.002365  (-0.030724  0.029352 -0.023649)
105:   3289.56   0.104765  529.44  0.009938  ( 0.095543 -0.001974  0.028392)
106:   3417.33   0.029343  148.29  0.002680  (-0.026256  0.029330 -0.033614)
107:   3523.37   0.005559   28.09  0.000492  (-0.020618  0.006903 -0.004426)
108:   3527.12   0.006377   32.23  0.000564  ( 0.016335 -0.000114  0.017245)
109:   3588.73   0.013829   69.89  0.001203  ( 0.012308 -0.024135  0.021646)
110:   3629.65   0.018534   93.66  0.001593  ( 0.023328 -0.025736 -0.019672)

* The epsilon (eps) is given for a Dirac delta lineshape.
** The dipole moment derivative (T) already includes vibrational overlap.

The first frequency considered to be a vibration is 6
The total number of vibrations considered is 105


--------------------------
THERMOCHEMISTRY AT 298.15K
--------------------------

Temperature         ... 298.15 K
Pressure            ... 1.00 atm
Total Mass          ... 346.18 AMU

Throughout the following assumptions are being made:
  (1) The electronic state is orbitally nondegenerate
  (2) There are no thermally accessible electronically excited states
  (3) Hindered rotations indicated by low frequency modes are not
      treated as such but are treated as vibrations and this may
      cause some error
  (4) All equations used are the standard statistical mechanics
      equations for an ideal gas
  (5) All vibrations are strictly harmonic

freq.      27.08  E(vib)   ...       0.55 
freq.      28.87  E(vib)   ...       0.55 
freq.      43.12  E(vib)   ...       0.53 
freq.      66.48  E(vib)   ...       0.50 
freq.      69.63  E(vib)   ...       0.50 
freq.      77.23  E(vib)   ...       0.49 
freq.     105.08  E(vib)   ...       0.45 
freq.     127.17  E(vib)   ...       0.43 
freq.     152.79  E(vib)   ...       0.40 
freq.     157.89  E(vib)   ...       0.40 
freq.     173.98  E(vib)   ...       0.38 
freq.     186.07  E(vib)   ...       0.37 
freq.     191.57  E(vib)   ...       0.36 
freq.     200.65  E(vib)   ...       0.35 
freq.     206.83  E(vib)   ...       0.35 
freq.     237.71  E(vib)   ...       0.32 
freq.     240.48  E(vib)   ...       0.31 
freq.     242.94  E(vib)   ...       0.31 
freq.     262.79  E(vib)   ...       0.29 
freq.     286.42  E(vib)   ...       0.27 
freq.     290.39  E(vib)   ...       0.27 
freq.     297.98  E(vib)   ...       0.27 
freq.     319.58  E(vib)   ...       0.25 
freq.     327.94  E(vib)   ...       0.24 
freq.     334.88  E(vib)   ...       0.24 
freq.     354.23  E(vib)   ...       0.22 
freq.     367.59  E(vib)   ...       0.21 
freq.     375.81  E(vib)   ...       0.21 
freq.     381.25  E(vib)   ...       0.21 
freq.     406.02  E(vib)   ...       0.19 
freq.     420.79  E(vib)   ...       0.18 
freq.     448.29  E(vib)   ...       0.17 
freq.     460.69  E(vib)   ...       0.16 
freq.     469.51  E(vib)   ...       0.16 
freq.     489.17  E(vib)   ...       0.15 
freq.     507.23  E(vib)   ...       0.14 
freq.     526.57  E(vib)   ...       0.13 
freq.     541.64  E(vib)   ...       0.12 
freq.     545.73  E(vib)   ...       0.12 
freq.     564.75  E(vib)   ...       0.11 
freq.     569.95  E(vib)   ...       0.11 
freq.     594.01  E(vib)   ...       0.10 
freq.     614.02  E(vib)   ...       0.10 
freq.     624.70  E(vib)   ...       0.09 
freq.     679.76  E(vib)   ...       0.08 
freq.     717.00  E(vib)   ...       0.07 
freq.     733.56  E(vib)   ...       0.06 
freq.     780.67  E(vib)   ...       0.05 
freq.     816.89  E(vib)   ...       0.05 
freq.     845.15  E(vib)   ...       0.04 
freq.     848.39  E(vib)   ...       0.04 
freq.     903.65  E(vib)   ...       0.03 
freq.     909.97  E(vib)   ...       0.03 
freq.     912.27  E(vib)   ...       0.03 
freq.     952.07  E(vib)   ...       0.03 
freq.     982.14  E(vib)   ...       0.02 
freq.     990.43  E(vib)   ...       0.02 
freq.     993.08  E(vib)   ...       0.02 
freq.    1016.12  E(vib)   ...       0.02 
freq.    1057.15  E(vib)   ...       0.02 
freq.    1069.80  E(vib)   ...       0.02 
freq.    1098.87  E(vib)   ...       0.02 
freq.    1099.78  E(vib)   ...       0.02 
freq.    1110.46  E(vib)   ...       0.02 
freq.    1112.70  E(vib)   ...       0.01 
freq.    1118.56  E(vib)   ...       0.01 
freq.    1131.07  E(vib)   ...       0.01 
freq.    1143.56  E(vib)   ...       0.01 
freq.    1178.02  E(vib)   ...       0.01 
freq.    1195.65  E(vib)   ...       0.01 
freq.    1200.69  E(vib)   ...       0.01 
freq.    1206.87  E(vib)   ...       0.01 
freq.    1236.62  E(vib)   ...       0.01 
freq.    1251.13  E(vib)   ...       0.01 
freq.    1260.01  E(vib)   ...       0.01 
freq.    1279.87  E(vib)   ...       0.01 
freq.    1287.66  E(vib)   ...       0.01 
freq.    1303.20  E(vib)   ...       0.01 
freq.    1306.61  E(vib)   ...       0.01 
freq.    1315.74  E(vib)   ...       0.01 
freq.    1320.21  E(vib)   ...       0.01 
freq.    1331.42  E(vib)   ...       0.01 
freq.    1342.78  E(vib)   ...       0.01 
freq.    1353.86  E(vib)   ...       0.01 
freq.    1363.15  E(vib)   ...       0.01 
freq.    1408.73  E(vib)   ...       0.00 
freq.    1424.31  E(vib)   ...       0.00 
freq.    1432.28  E(vib)   ...       0.00 
freq.    1729.44  E(vib)   ...       0.00 
freq.    1757.31  E(vib)   ...       0.00 
freq.    2832.99  E(vib)   ...       0.00 
freq.    2909.00  E(vib)   ...       0.00 
freq.    2910.59  E(vib)   ...       0.00 
freq.    2946.35  E(vib)   ...       0.00 
freq.    2992.13  E(vib)   ...       0.00 
freq.    3014.57  E(vib)   ...       0.00 
freq.    3032.09  E(vib)   ...       0.00 
freq.    3060.00  E(vib)   ...       0.00 
freq.    3282.73  E(vib)   ...       0.00 
freq.    3289.56  E(vib)   ...       0.00 
freq.    3417.33  E(vib)   ...       0.00 
freq.    3523.37  E(vib)   ...       0.00 
freq.    3527.12  E(vib)   ...       0.00 
freq.    3588.73  E(vib)   ...       0.00 
freq.    3629.65  E(vib)   ...       0.00 

------------
INNER ENERGY
------------

The inner energy is: U= E(el) + E(ZPE) + E(vib) + E(rot) + E(trans)
    E(el)   - is the total energy from the electronic structure calculation
              = E(kin-el) + E(nuc-el) + E(el-el) + E(nuc-nuc)
    E(ZPE)  - the the zero temperature vibrational energy from the frequency calculation
    E(vib)  - the the finite temperature correction to E(ZPE) due to population
              of excited vibrational states
    E(rot)  - is the rotational thermal energy
    E(trans)- is the translational thermal energy

Summary of contributions to the inner energy U:
Electronic energy                ...    -78.40317568 Eh
Zero point energy                ...      0.26058222 Eh     163.52 kcal/mol
Thermal vibrational correction   ...      0.02096967 Eh      13.16 kcal/mol
Thermal rotational correction    ...      0.00141627 Eh       0.89 kcal/mol
Thermal translational correction ...      0.00141627 Eh       0.89 kcal/mol
-----------------------------------------------------------------------
Total thermal energy                    -78.11879125 Eh


Summary of corrections to the electronic energy:
(perhaps to be used in another calculation)
Total thermal correction                  0.02380221 Eh      14.94 kcal/mol
Non-thermal (ZPE) correction              0.26058222 Eh     163.52 kcal/mol
-----------------------------------------------------------------------
Total correction                          0.28438443 Eh     178.45 kcal/mol


--------
ENTHALPY
--------

The enthalpy is H = U + kB*T
                kB is Boltzmann's constant
Total free energy                 ...    -78.11879125 Eh 
Thermal Enthalpy correction       ...      0.00094421 Eh       0.59 kcal/mol
-----------------------------------------------------------------------
Total Enthalpy                    ...    -78.11784704 Eh


Note: Only C1 symmetry has been detected, increase convergence thresholds 
      if your molecule has a higher symmetry. Symmetry factor of 1.0 is   
      used for the rotational entropy correction. 
 

Note: Rotational entropy computed according to Herzberg 
Infrared and Raman Spectra, Chapter V,1, Van Nostrand Reinhold, 1945 
Point Group:  C1, Symmetry Number:   1  
Rotational constants in cm-1:     0.020073     0.005131     0.005012 

Vibrational entropy computed according to the QRRHO of S. Grimme
Chem.Eur.J. 2012 18 9955


-------
ENTROPY
-------

The entropy contributions are T*S = T*(S(el)+S(vib)+S(rot)+S(trans))
     S(el)   - electronic entropy
     S(vib)  - vibrational entropy
     S(rot)  - rotational entropy
     S(trans)- translational entropy
The entropies will be listed as multiplied by the temperature to get
units of energy

Electronic entropy                ...      0.00000000 Eh      0.00 kcal/mol
Vibrational entropy               ...      0.03667845 Eh     23.02 kcal/mol
Rotational entropy                ...      0.01634521 Eh     10.26 kcal/mol
Translational entropy             ...      0.02062996 Eh     12.95 kcal/mol
-----------------------------------------------------------------------
Final entropy term                ...      0.07365362 Eh     46.22 kcal/mol

In case the symmetry of your molecule has not been determined correctly
or in case you have a reason to use a different symmetry number we print 
out the resulting rotational entropy values for sn=1,12 :
 --------------------------------------------------------
|  sn= 1 | S(rot)=       0.01634521 Eh     10.26 kcal/mol|
|  sn= 2 | S(rot)=       0.01569076 Eh      9.85 kcal/mol|
|  sn= 3 | S(rot)=       0.01530793 Eh      9.61 kcal/mol|
|  sn= 4 | S(rot)=       0.01503630 Eh      9.44 kcal/mol|
|  sn= 5 | S(rot)=       0.01482561 Eh      9.30 kcal/mol|
|  sn= 6 | S(rot)=       0.01465347 Eh      9.20 kcal/mol|
|  sn= 7 | S(rot)=       0.01450792 Eh      9.10 kcal/mol|
|  sn= 8 | S(rot)=       0.01438185 Eh      9.02 kcal/mol|
|  sn= 9 | S(rot)=       0.01427064 Eh      8.95 kcal/mol|
|  sn=10 | S(rot)=       0.01417116 Eh      8.89 kcal/mol|
|  sn=11 | S(rot)=       0.01408117 Eh      8.84 kcal/mol|
|  sn=12 | S(rot)=       0.01399901 Eh      8.78 kcal/mol|
 --------------------------------------------------------


-------------------
GIBBS FREE ENERGY
-------------------

The Gibbs free energy is G = H - T*S

Total enthalpy                    ...    -78.11784704 Eh 
Total entropy correction          ...     -0.07365362 Eh    -46.22 kcal/mol
-----------------------------------------------------------------------
Final Gibbs free energy         ...    -78.19150066 Eh

For completeness - the Gibbs free energy minus the electronic energy
G-E(el)                           ...      0.21167502 Eh    132.83 kcal/mol



Timings for individual modules:

Sum of individual times         ...      549.034 sec (=   9.151 min)
Geometry relaxation             ...        1.377 sec (=   0.023 min)   0.3 %
Numerical frequency calculation ...      546.460 sec (=   9.108 min)  99.5 %
XTB module                      ...        1.198 sec (=   0.020 min)   0.2 %
                             ****ORCA TERMINATED NORMALLY****
TOTAL RUN TIME: 0 days 0 hours 9 minutes 10 seconds 55 msec
