
                                 *****************
                                 * O   R   C   A *
                                 *****************

                                            #,                                       
                                            ###                                      
                                            ####                                     
                                            #####                                    
                                            ######                                   
                                           ########,                                 
                                     ,,################,,,,,                         
                               ,,#################################,,                 
                          ,,##########################################,,             
                       ,#########################################, ''#####,          
                    ,#############################################,,   '####,        
                  ,##################################################,,,,####,       
                ,###########''''           ''''###############################       
              ,#####''   ,,,,##########,,,,          '''####'''          '####       
            ,##' ,,,,###########################,,,                        '##       
           ' ,,###''''                  '''############,,,                           
         ,,##''                                '''############,,,,        ,,,,,,###''
      ,#''                                            '''#######################'''  
     '                                                          ''''####''''         
             ,#######,   #######,   ,#######,      ##                                
            ,#'     '#,  ##    ##  ,#'     '#,    #''#        ######   ,####,        
            ##       ##  ##   ,#'  ##            #'  '#       #        #'  '#        
            ##       ##  #######   ##           ,######,      #####,   #    #        
            '#,     ,#'  ##    ##  '#,     ,#' ,#      #,         ##   #,  ,#        
             '#######'   ##     ##  '#######'  #'      '#     #####' # '####'        



                  #######################################################
                  #                        -***-                        #
                  #          Department of theory and spectroscopy      #
                  #    Directorship and core code : Frank Neese         #
                  #        Max Planck Institute fuer Kohlenforschung    #
                  #                Kaiser Wilhelm Platz 1               #
                  #                 D-45470 Muelheim/Ruhr               #
                  #                      Germany                        #
                  #                                                     #
                  #                  All rights reserved                #
                  #                        -***-                        #
                  #######################################################


                         Program Version 5.0.3 -  RELEASE  -


 With contributions from (in alphabetic order):
   Daniel Aravena         : Magnetic Suceptibility
   Michael Atanasov       : Ab Initio Ligand Field Theory (pilot matlab implementation)
   Alexander A. Auer      : GIAO ZORA, VPT2 properties, NMR spectrum
   Ute Becker             : Parallelization
   Giovanni Bistoni       : ED, misc. LED, open-shell LED, HFLD
   Martin Brehm           : Molecular dynamics
   Dmytro Bykov           : SCF Hessian
   Vijay G. Chilkuri      : MRCI spin determinant printing, contributions to CSF-ICE
   Dipayan Datta          : RHF DLPNO-CCSD density
   Achintya Kumar Dutta   : EOM-CC, STEOM-CC
   Dmitry Ganyushin       : Spin-Orbit,Spin-Spin,Magnetic field MRCI
   Miquel Garcia          : C-PCM and meta-GGA Hessian, CC/C-PCM, Gaussian charge scheme
   Yang Guo               : DLPNO-NEVPT2, F12-NEVPT2, CIM, IAO-localization
   Andreas Hansen         : Spin unrestricted coupled pair/coupled cluster methods
   Benjamin Helmich-Paris : MC-RPA, TRAH-SCF, COSX integrals
   Lee Huntington         : MR-EOM, pCC
   Robert Izsak           : Overlap fitted RIJCOSX, COSX-SCS-MP3, EOM
   Marcus Kettner         : VPT2
   Christian Kollmar      : KDIIS, OOCD, Brueckner-CCSD(T), CCSD density, CASPT2, CASPT2-K
   Simone Kossmann        : Meta GGA functionals, TD-DFT gradient, OOMP2, MP2 Hessian
   Martin Krupicka        : Initial AUTO-CI
   Lucas Lang             : DCDCAS
   Marvin Lechner         : AUTO-CI (C++ implementation), FIC-MRCC
   Dagmar Lenk            : GEPOL surface, SMD
   Dimitrios Liakos       : Extrapolation schemes; Compound Job, initial MDCI parallelization
   Dimitrios Manganas     : Further ROCIS development; embedding schemes
   Dimitrios Pantazis     : SARC Basis sets
   Anastasios Papadopoulos: AUTO-CI, single reference methods and gradients
   Taras Petrenko         : DFT Hessian,TD-DFT gradient, ASA, ECA, R-Raman, ABS, FL, XAS/XES, NRVS
   Peter Pinski           : DLPNO-MP2, DLPNO-MP2 Gradient
   Christoph Reimann      : Effective Core Potentials
   Marius Retegan         : Local ZFS, SOC
   Christoph Riplinger    : Optimizer, TS searches, QM/MM, DLPNO-CCSD(T), (RO)-DLPNO pert. Triples
   Tobias Risthaus        : Range-separated hybrids, TD-DFT gradient, RPA, STAB
   Michael Roemelt        : Original ROCIS implementation
   Masaaki Saitow         : Open-shell DLPNO-CCSD energy and density
   Barbara Sandhoefer     : DKH picture change effects
   Avijit Sen             : IP-ROCIS
   Kantharuban Sivalingam : CASSCF convergence, NEVPT2, FIC-MRCI
   Bernardo de Souza      : ESD, SOC TD-DFT
   Georgi Stoychev        : AutoAux, RI-MP2 NMR, DLPNO-MP2 response
   Willem Van den Heuvel  : Paramagnetic NMR
   Boris Wezisla          : Elementary symmetry handling
   Frank Wennmohs         : Technical directorship


 We gratefully acknowledge several colleagues who have allowed us to
 interface, adapt or use parts of their codes:
   Stefan Grimme, W. Hujo, H. Kruse, P. Pracht,  : VdW corrections, initial TS optimization,
                  C. Bannwarth, S. Ehlert          DFT functionals, gCP, sTDA/sTD-DF
   Ed Valeev, F. Pavosevic, A. Kumar             : LibInt (2-el integral package), F12 methods
   Garnet Chan, S. Sharma, J. Yang, R. Olivares  : DMRG
   Ulf Ekstrom                                   : XCFun DFT Library
   Mihaly Kallay                                 : mrcc  (arbitrary order and MRCC methods)
   Jiri Pittner, Ondrej Demel                    : Mk-CCSD
   Frank Weinhold                                : gennbo (NPA and NBO analysis)
   Christopher J. Cramer and Donald G. Truhlar   : smd solvation model
   Lars Goerigk                                  : TD-DFT with DH, B97 family of functionals
   V. Asgeirsson, H. Jonsson                     : NEB implementation
   FAccTs GmbH                                   : IRC, NEB, NEB-TS, DLPNO-Multilevel, CI-OPT
                                                   MM, QMMM, 2- and 3-layer-ONIOM, Crystal-QMMM,
                                                   LR-CPCM, SF, NACMEs, symmetry and pop. for TD-DFT,
                                                   nearIR, NL-DFT gradient (VV10), updates on ESD,
                                                   ML-optimized integration grids
   S Lehtola, MJT Oliveira, MAL Marques          : LibXC Library
   Liviu Ungur et al                             : ANISO software


 Your calculation uses the libint2 library for the computation of 2-el integrals
 For citations please refer to: http://libint.valeyev.net

 Your ORCA version has been built with support for libXC version: 5.1.0
 For citations please refer to: https://tddft.org/programs/libxc/

 This ORCA versions uses:
   CBLAS   interface :  Fast vector & matrix operations
   LAPACKE interface :  Fast linear algebra routines
   SCALAPACK package :  Parallel linear algebra routines
   Shared memory     :  Shared parallel matrices
   BLAS/LAPACK       :  OpenBLAS 0.3.15  USE64BITINT DYNAMIC_ARCH NO_AFFINITY Haswell SINGLE_THREADED
        Core in use  :  Haswell
   Copyright (c) 2011-2014, The OpenBLAS Project


Your calculation utilizes the semiempirical GFN2-xTB method
Please cite in your paper:
C. Bannwarth, Ehlert S., S. Grimme,  J. Chem. Theory Comput., 15, (2019), 1652.
   

================================================================================

================================================================================
                                        WARNINGS
                       Please study these warnings very carefully!
================================================================================


WARNING: Geometry Optimization
  ===> : Switching off AutoStart
         For restart on a previous wavefunction, please use MOREAD

WARNING: Found dipole moment calculation with XTB calculation
  ===> : Switching off dipole moment calculation


WARNING: TRAH-SCF for XTB is not implemented!
  ===> : Turning TRAH off!

================================================================================
                                       INPUT FILE
================================================================================
NAME = /tmp/26.inp
|  1> ! XTB2 opt numfreq
|  2> * XYZ 0 1
|  3> O -1.3224 0.5315 -3.5511
|  4> C -1.4291 0.2060 -2.3616
|  5> C -2.6383 0.6277 -1.5479
|  6> C -3.6387 -0.5096 -1.3367
|  7> O -4.4081 -0.6515 -2.5408
|  8> C -4.6284 -0.2411 -0.1806
|  9> O -5.2565 1.0224 -0.4494
| 10> C -3.9363 -0.2431 1.1915
| 11> O -4.8566 -0.5665 2.2308
| 12> P -5.7708 0.6012 2.8149
| 13> O -6.6166 1.3241 1.8235
| 14> O -4.8067 1.4983 3.7068
| 15> O -6.6462 -0.1090 3.9421
| 16> C -0.2956 -0.6435 -1.7077
| 17> O 0.6837 -0.9067 -2.7171
| 18> O -0.7932 -1.9237 -1.3378
| 19> C 0.3453 0.0631 -0.4764
| 20> O -0.5967 -0.1404 0.6258
| 21> C 0.5526 1.5600 -0.7351
| 22> O 1.1101 2.0599 -1.6953
| 23> O 0.0992 2.3482 0.2589
| 24> C 1.7158 -0.4911 0.0120
| 25> O 1.4869 -1.7923 0.6065
| 26> C 2.8723 -0.5898 -1.0064
| 27> O 2.8298 -1.8822 -1.6410
| 28> C 4.2654 -0.4371 -0.3558
| 29> O 5.2739 -0.5980 -1.3776
| 30> C 4.5662 -1.4250 0.7873
| 31> O 5.9200 -1.4173 1.2278
| 32> P 6.7056 -0.0270 1.3466
| 33> O 5.9125 1.1510 1.8004
| 34> O 7.4227 0.1069 -0.0699
| 35> O 7.9347 -0.4045 2.2943
| 36> H -3.1111 1.4530 -2.0961
| 37> H -2.2912 1.0539 -0.6066
| 38> H -3.1471 -1.4700 -1.1682
| 39> H -5.0091 0.1207 -2.5689
| 40> H -5.4285 -0.9910 -0.2057
| 41> H -5.9292 1.1958 0.2463
| 42> H -3.4688 0.7223 1.4121
| 43> H -3.1643 -1.0176 1.2246
| 44> H -4.5673 1.0248 4.5227
| 45> H -7.5543 -0.2707 3.6188
| 46> H 0.2155 -0.7434 -3.5709
| 47> H -0.5449 -2.0666 -0.4042
| 48> H -0.0721 -0.3308 1.4317
| 49> H 0.2877 3.2693 -0.0335
| 50> H 2.0376 0.1549 0.8413
| 51> H 1.8211 -2.4485 -0.0466
| 52> H 2.8015 0.1684 -1.7925
| 53> H 2.1196 -1.8143 -2.3230
| 54> H 4.3555 0.5915 0.0028
| 55> H 5.0261 -1.4300 -1.8379
| 56> H 4.3676 -2.4464 0.4596
| 57> H 3.9329 -1.2197 1.6509
| 58> H 6.7731 0.0136 -0.8074
| 59> H 8.4936 0.3720 2.4700
| 60> *
| 61> 
| 62>                          ****END OF INPUT****
================================================================================

                       *****************************
                       * Geometry Optimization Run *
                       *****************************

Geometry optimization settings:
Update method            Update   .... BFGS
Choice of coordinates    CoordSys .... Z-matrix Internals
Initial Hessian          InHess   .... Almoef's Model

Convergence Tolerances:
Energy Change            TolE     ....  5.0000e-06 Eh
Max. Gradient            TolMAXG  ....  3.0000e-04 Eh/bohr
RMS Gradient             TolRMSG  ....  1.0000e-04 Eh/bohr
Max. Displacement        TolMAXD  ....  4.0000e-03 bohr
RMS Displacement         TolRMSD  ....  2.0000e-03 bohr
Strict Convergence                ....  False
------------------------------------------------------------------------------
                        ORCA OPTIMIZATION COORDINATE SETUP
------------------------------------------------------------------------------

The optimization will be done in new redundant internal coordinates
Making redundant internal coordinates   ...  (new redundants) done
Evaluating the initial hessian          ...  (Almloef) done
Evaluating the coordinates              ...  done
Calculating the B-matrix                .... done
Calculating the G-matrix                .... done
Diagonalizing the G-matrix              .... done
Small eigenvalue found = 7.936e-04
Small eigenvalue found = 2.156e-03
Small eigenvalue found = 3.025e-03
Small eigenvalue found = 3.947e-03
Small eigenvalue found = 7.289e-03
Small eigenvalue found = 1.040e-02
Small eigenvalue found = 1.436e-02
Small eigenvalue found = 1.565e-02
Small eigenvalue found = 2.057e-02
Small eigenvalue found = 2.288e-02
The first mode is                       ....  124
The number of degrees of freedom        ....  165

    -----------------------------------------------------------------
                    Redundant Internal Coordinates


    -----------------------------------------------------------------
         Definition                    Initial Value    Approx d2E/dq
    -----------------------------------------------------------------
      1. B(C   1,O   0)                  1.2378         0.978675   
      2. B(C   2,C   1)                  1.5173         0.391462   
      3. B(C   3,C   2)                  1.5293         0.374492   
      4. B(O   4,C   3)                  1.4360         0.472668   
      5. B(C   5,C   3)                  1.5454         0.353067   
      6. B(O   6,C   5)                  1.4364         0.471927   
      7. B(C   7,C   5)                  1.5368         0.364397   
      8. B(O   8,C   7)                  1.4254         0.491408   
      9. B(P   9,O   8)                  1.5939         0.889385   
     10. B(O  10,P   9)                  1.4902         1.301463   
     11. B(O  11,P   9)                  1.5905         0.900426   
     12. B(O  12,P   9)                  1.5941         0.888533   
     13. B(C  13,C   1)                  1.5601         0.334411   
     14. B(O  14,C  13)                  1.4308         0.481704   
     15. B(O  15,C  13)                  1.4224         0.496724   
     16. B(C  16,C  13)                  1.5576         0.337547   
     17. B(O  17,C  16)                  1.4641         0.426222   
     18. B(C  18,C  16)                  1.5332         0.369250   
     19. B(O  19,C  18)                  1.2177         1.053990   
     20. B(O  20,C  18)                  1.3472         0.654950   
     21. B(C  21,C  16)                  1.5569         0.338421   
     22. B(O  22,C  21)                  1.4488         0.450926   
     23. B(C  23,C  21)                  1.5441         0.354663   
     24. B(O  24,C  23)                  1.4404         0.464972   
     25. B(C  25,C  23)                  1.5451         0.353420   
     26. B(O  26,C  25)                  1.4447         0.457796   
     27. B(C  27,C  25)                  1.5405         0.359454   
     28. B(O  28,C  27)                  1.4237         0.494466   
     29. B(P  29,O  28)                  1.6013         0.865421   
     30. B(O  30,P  29)                  1.4908         1.298595   
     31. B(O  31,P  29)                  1.5933         0.891257   
     32. B(O  32,P  29)                  1.5973         0.878324   
     33. B(H  33,C   2)                  1.0978         0.349917   
     34. B(H  34,C   2)                  1.0900         0.360057   
     35. B(H  35,C   3)                  1.0920         0.357484   
     36. B(H  36,O   4)                  0.9789         0.485045   
     37. B(H  37,C   5)                  1.0969         0.351116   
     38. B(H  38,O   6)                  0.9832         0.477558   
     39. B(H  39,C   7)                  1.0951         0.353432   
     40. B(H  40,C   7)                  1.0940         0.354791   
     41. B(H  41,O  11)                  0.9732         0.495261   
     42. B(H  42,O  12)                  0.9774         0.487756   
     43. B(H  43,O  14)                  0.9873         0.470260   
     44. B(H  44,O  15)                  0.9766         0.489256   
     45. B(H  45,O  17)                  0.9803         0.482642   
     46. B(H  46,O  20)                  0.9846         0.475012   
     47. B(H  47,C  21)                  1.0994         0.347918   
     48. B(H  48,O  22)                  0.9843         0.475568   
     49. B(H  49,C  23)                  1.0945         0.354254   
     50. B(H  50,O  24)                  0.9870         0.470902   
     51. B(H  51,C  25)                  1.0930         0.356105   
     52. B(H  52,O  26)                  0.9826         0.478529   
     53. B(H  53,C  27)                  1.0909         0.358897   
     54. B(H  54,C  27)                  1.0904         0.359541   
     55. B(H  55,O  31)                  0.9872         0.470488   
     56. B(H  56,O  32)                  0.9727         0.496211   
     57. A(C   2,C   1,C  13)          120.3697         0.359407   
     58. A(O   0,C   1,C   2)          120.7279         0.430967   
     59. A(O   0,C   1,C  13)          118.9021         0.418990   
     60. A(H  33,C   2,H  34)          105.9276         0.289528   
     61. A(C   3,C   2,H  33)          110.2610         0.322926   
     62. A(C   1,C   2,C   3)          112.8735         0.366425   
     63. A(C   3,C   2,H  34)          112.3220         0.324443   
     64. A(C   1,C   2,H  33)          106.5213         0.325284   
     65. A(C   1,C   2,H  34)          108.5427         0.326817   
     66. A(C   5,C   3,H  35)          109.0071         0.320948   
     67. A(O   4,C   3,C   5)          107.5378         0.372332   
     68. A(C   2,C   3,O   4)          107.9497         0.376136   
     69. A(C   2,C   3,C   5)          113.1437         0.360018   
     70. A(C   2,C   3,H  35)          112.3875         0.324061   
     71. A(O   4,C   3,H  35)          106.4809         0.334741   
     72. A(C   3,O   4,H  36)          105.9665         0.349245   
     73. A(C   3,C   5,C   7)          112.2899         0.358347   
     74. A(C   3,C   5,O   6)          107.0305         0.372232   
     75. A(C   3,C   5,H  37)          109.3446         0.320006   
     76. A(C   7,C   5,H  37)          110.3681         0.321663   
     77. A(O   6,C   5,H  37)          106.1488         0.333657   
     78. A(O   6,C   5,C   7)          111.4176         0.374264   
     79. A(C   5,O   6,H  38)          108.7790         0.348239   
     80. A(C   5,C   7,O   8)          111.1328         0.376887   
     81. A(H  39,C   7,H  40)          108.4665         0.289313   
     82. A(O   8,C   7,H  40)          105.8381         0.336490   
     83. A(C   5,C   7,H  40)          110.2261         0.322212   
     84. A(C   5,C   7,H  39)          111.7757         0.322010   
     85. A(O   8,C   7,H  39)          109.1942         0.336275   
     86. A(C   7,O   8,P   9)          118.1194         0.468662   
     87. A(O  10,P   9,O  12)          112.0145         0.603155   
     88. A(O   8,P   9,O  12)          104.3418         0.560705   
     89. A(O  10,P   9,O  11)          116.3257         0.604704   
     90. A(O   8,P   9,O  11)          105.7263         0.562127   
     91. A(O   8,P   9,O  10)          115.9203         0.603266   
     92. A(O  11,P   9,O  12)          100.8146         0.562025   
     93. A(P   9,O  11,H  41)          110.1692         0.417727   
     94. A(P   9,O  12,H  42)          110.4883         0.415608   
     95. A(O  14,C  13,O  15)          104.9117         0.393877   
     96. A(O  15,C  13,C  16)          110.2827         0.372633   
     97. A(O  14,C  13,C  16)          111.0703         0.370669   
     98. A(C   1,C  13,O  14)          107.5626         0.370074   
     99. A(C   1,C  13,C  16)          112.5356         0.350488   
    100. A(C   1,C  13,O  15)          110.1748         0.372034   
    101. A(C  13,O  14,H  43)          104.7778         0.348538   
    102. A(C  13,O  15,H  44)          106.9391         0.352701   
    103. A(C  13,C  16,C  21)          116.6605         0.351195   
    104. A(O  17,C  16,C  18)          110.4704         0.368598   
    105. A(C  13,C  16,C  18)          111.4175         0.356420   
    106. A(C  13,C  16,O  17)          105.5047         0.362974   
    107. A(C  18,C  16,C  21)          106.3469         0.356577   
    108. A(O  17,C  16,C  21)          106.3038         0.363135   
    109. A(C  16,O  17,H  45)          107.5526         0.342938   
    110. A(O  19,C  18,O  20)          119.7178         0.476502   
    111. A(C  16,C  18,O  20)          113.6552         0.397150   
    112. A(C  16,C  18,O  19)          126.5693         0.432186   
    113. A(C  18,O  20,H  46)          105.2950         0.367862   
    114. A(C  23,C  21,H  47)          108.4113         0.319764   
    115. A(O  22,C  21,H  47)          105.3349         0.330648   
    116. A(C  16,C  21,H  47)          106.5671         0.317328   
    117. A(O  22,C  21,C  23)          109.3634         0.369615   
    118. A(C  16,C  21,C  23)          118.3691         0.354147   
    119. A(C  16,C  21,O  22)          108.0201         0.366653   
    120. A(C  21,O  22,H  48)          105.8336         0.345339   
    121. A(C  25,C  23,H  49)          106.9957         0.320524   
    122. A(O  24,C  23,H  49)          107.6515         0.333328   
    123. A(C  21,C  23,H  49)          112.3942         0.320708   
    124. A(O  24,C  23,C  25)          107.5048         0.371345   
    125. A(C  21,C  23,C  25)          113.0327         0.356762   
    126. A(C  21,C  23,O  24)          109.0150         0.371570   
    127. A(C  23,O  24,H  50)          105.3037         0.346550   
    128. A(C  27,C  25,H  51)          110.1173         0.321687   
    129. A(C  23,C  25,H  51)          107.7864         0.320797   
    130. A(O  26,C  25,H  51)          106.2192         0.332756   
    131. A(O  26,C  25,C  27)          108.4879         0.371433   
    132. A(C  23,C  25,C  27)          115.1588         0.357577   
    133. A(C  23,C  25,O  26)          108.6983         0.370353   
    134. A(C  25,O  26,H  52)          104.4532         0.346580   
    135. A(O  28,C  27,H  54)          107.8310         0.337585   
    136. A(C  25,C  27,H  54)          110.7039         0.322194   
    137. A(O  28,C  27,H  53)          105.7310         0.337484   
    138. A(H  53,C  27,H  54)          107.9660         0.290616   
    139. A(C  25,C  27,H  53)          109.9975         0.322099   
    140. A(C  25,C  27,O  28)          114.3181         0.376402   
    141. A(C  27,O  28,P  29)          119.6147         0.466852   
    142. A(O  31,P  29,O  32)          101.5963         0.559697   
    143. A(O  30,P  29,O  32)          114.5506         0.601556   
    144. A(O  28,P  29,O  32)          102.4938         0.556574   
    145. A(O  30,P  29,O  31)          116.3361         0.603254   
    146. A(O  28,P  29,O  31)          103.1682         0.558123   
    147. A(O  28,P  29,O  30)          116.5915         0.599842   
    148. A(P  29,O  31,H  55)          111.1037         0.413179   
    149. A(P  29,O  32,H  56)          111.1392         0.416025   
    150. D(C   3,C   2,C   1,O   0)    103.5851         0.011396   
    151. D(H  33,C   2,C   1,O   0)    -17.5578         0.011396   
    152. D(H  34,C   2,C   1,O   0)   -131.2239         0.011396   
    153. D(C   3,C   2,C   1,C  13)    -76.6119         0.011396   
    154. D(H  34,C   2,C   1,C  13)     48.5791         0.011396   
    155. D(H  33,C   2,C   1,C  13)    162.2452         0.011396   
    156. D(H  35,C   3,C   2,H  34)    -84.8094         0.011195   
    157. D(C   5,C   3,C   2,H  34)     39.1862         0.011195   
    158. D(O   4,C   3,C   2,H  34)    158.0639         0.011195   
    159. D(C   5,C   3,C   2,C   1)    162.3014         0.011195   
    160. D(C   5,C   3,C   2,H  33)    -78.7040         0.011195   
    161. D(O   4,C   3,C   2,H  33)     40.1737         0.011195   
    162. D(H  35,C   3,C   2,C   1)     38.3058         0.011195   
    163. D(O   4,C   3,C   2,C   1)    -78.8209         0.011195   
    164. D(H  35,C   3,C   2,H  33)    157.3004         0.011195   
    165. D(H  36,O   4,C   3,H  35)    166.5286         0.017614   
    166. D(H  36,O   4,C   3,C   2)    -72.5842         0.017614   
    167. D(H  36,O   4,C   3,C   5)     49.8046         0.017614   
    168. D(H  37,C   5,C   3,O   4)     50.0751         0.010030   
    169. D(H  37,C   5,C   3,C   2)    169.1907         0.010030   
    170. D(C   7,C   5,C   3,H  35)     57.8759         0.010030   
    171. D(O   6,C   5,C   3,O   4)    -64.4965         0.010030   
    172. D(C   7,C   5,C   3,C   2)    -67.9501         0.010030   
    173. D(O   6,C   5,C   3,H  35)   -179.5549         0.010030   
    174. D(O   6,C   5,C   3,C   2)     54.6190         0.010030   
    175. D(H  37,C   5,C   3,H  35)    -64.9833         0.010030   
    176. D(C   7,C   5,C   3,O   4)    172.9343         0.010030   
    177. D(H  38,O   6,C   5,H  37)     60.2065         0.017558   
    178. D(H  38,O   6,C   5,C   3)    176.9096         0.017558   
    179. D(H  38,O   6,C   5,C   7)    -59.9791         0.017558   
    180. D(O   8,C   7,C   5,C   3)   -155.0973         0.010635   
    181. D(H  40,C   7,C   5,O   6)   -158.1345         0.010635   
    182. D(H  40,C   7,C   5,C   3)    -38.0811         0.010635   
    183. D(H  39,C   7,C   5,H  37)   -155.0907         0.010635   
    184. D(H  39,C   7,C   5,O   6)    -37.4246         0.010635   
    185. D(H  39,C   7,C   5,C   3)     82.6287         0.010635   
    186. D(O   8,C   7,C   5,H  37)    -32.8167         0.010635   
    187. D(H  40,C   7,C   5,H  37)     84.1994         0.010635   
    188. D(O   8,C   7,C   5,O   6)     84.8494         0.010635   
    189. D(P   9,O   8,C   7,H  40)    157.4564         0.019071   
    190. D(P   9,O   8,C   7,H  39)     40.8801         0.019071   
    191. D(P   9,O   8,C   7,C   5)    -82.8782         0.019071   
    192. D(O  12,P   9,O   8,C   7)   -179.5587         0.013663   
    193. D(O  11,P   9,O   8,C   7)    -73.7044         0.013663   
    194. D(O  10,P   9,O   8,C   7)     56.7696         0.013663   
    195. D(H  41,O  11,P   9,O  12)     36.7111         0.013990   
    196. D(H  41,O  11,P   9,O  10)    158.0630         0.013990   
    197. D(H  41,O  11,P   9,O   8)    -71.6969         0.013990   
    198. D(H  42,O  12,P   9,O  11)    147.5332         0.013638   
    199. D(H  42,O  12,P   9,O  10)     23.1841         0.013638   
    200. D(H  42,O  12,P   9,O   8)   -102.9757         0.013638   
    201. D(C  16,C  13,C   1,C   2)    -58.5427         0.008527   
    202. D(C  16,C  13,C   1,O   0)    121.2639         0.008527   
    203. D(O  15,C  13,C   1,C   2)     64.9825         0.008527   
    204. D(O  15,C  13,C   1,O   0)   -115.2109         0.008527   
    205. D(O  14,C  13,C   1,C   2)    178.8014         0.008527   
    206. D(O  14,C  13,C   1,O   0)     -1.3921         0.008527   
    207. D(H  43,O  14,C  13,C  16)   -142.1002         0.018308   
    208. D(H  43,O  14,C  13,O  15)     98.7541         0.018308   
    209. D(H  43,O  14,C  13,C   1)    -18.5452         0.018308   
    210. D(H  44,O  15,C  13,C  16)     -4.1348         0.019498   
    211. D(H  44,O  15,C  13,O  14)    115.5383         0.019498   
    212. D(H  44,O  15,C  13,C   1)   -128.9610         0.019498   
    213. D(C  21,C  16,C  13,O  15)     72.6807         0.009238   
    214. D(C  21,C  16,C  13,C   1)   -163.8541         0.009238   
    215. D(C  18,C  16,C  13,O  15)   -164.9592         0.009238   
    216. D(C  18,C  16,C  13,O  14)     79.1676         0.009238   
    217. D(C  18,C  16,C  13,C   1)    -41.4940         0.009238   
    218. D(O  17,C  16,C  13,O  15)    -45.0473         0.009238   
    219. D(C  21,C  16,C  13,O  14)    -43.1926         0.009238   
    220. D(O  17,C  16,C  13,O  14)   -160.9206         0.009238   
    221. D(O  17,C  16,C  13,C   1)     78.4179         0.009238   
    222. D(H  45,O  17,C  16,C  21)     15.2715         0.014312   
    223. D(H  45,O  17,C  16,C  18)    -99.7019         0.014312   
    224. D(H  45,O  17,C  16,C  13)    139.7641         0.014312   
    225. D(O  20,C  18,C  16,C  21)   -100.4976         0.010213   
    226. D(O  20,C  18,C  16,O  17)     14.4485         0.010213   
    227. D(O  20,C  18,C  16,C  13)    131.3800         0.010213   
    228. D(O  19,C  18,C  16,C  21)     76.7065         0.010213   
    229. D(O  19,C  18,C  16,O  17)   -168.3473         0.010213   
    230. D(O  19,C  18,C  16,C  13)    -51.4158         0.010213   
    231. D(H  46,O  20,C  18,O  19)      2.8748         0.031742   
    232. D(H  46,O  20,C  18,C  16)   -179.7106         0.031742   
    233. D(H  47,C  21,C  16,C  18)     51.9994         0.009281   
    234. D(H  47,C  21,C  16,C  13)    176.9649         0.009281   
    235. D(C  23,C  21,C  16,C  18)    -70.3536         0.009281   
    236. D(C  23,C  21,C  16,O  17)    171.9027         0.009281   
    237. D(C  23,C  21,C  16,C  13)     54.6119         0.009281   
    238. D(O  22,C  21,C  16,C  18)    164.7625         0.009281   
    239. D(H  47,C  21,C  16,O  17)    -65.7443         0.009281   
    240. D(O  22,C  21,C  16,O  17)     47.0188         0.009281   
    241. D(O  22,C  21,C  16,C  13)    -70.2720         0.009281   
    242. D(H  48,O  22,C  21,H  47)   -140.9691         0.016014   
    243. D(H  48,O  22,C  21,C  23)    -24.6414         0.016014   
    244. D(H  48,O  22,C  21,C  16)    105.4450         0.016014   
    245. D(H  49,C  23,C  21,H  47)    -92.1784         0.010114   
    246. D(H  49,C  23,C  21,C  16)     29.2405         0.010114   
    247. D(C  25,C  23,C  21,H  47)     29.0675         0.010114   
    248. D(C  25,C  23,C  21,O  22)    -85.2898         0.010114   
    249. D(C  25,C  23,C  21,C  16)    150.4863         0.010114   
    250. D(O  24,C  23,C  21,H  47)    148.5540         0.010114   
    251. D(H  49,C  23,C  21,O  22)    153.4644         0.010114   
    252. D(O  24,C  23,C  21,O  22)     34.1968         0.010114   
    253. D(O  24,C  23,C  21,C  16)    -90.0271         0.010114   
    254. D(H  50,O  24,C  23,H  49)    -43.1508         0.017036   
    255. D(H  50,O  24,C  23,C  25)   -158.1114         0.017036   
    256. D(H  50,O  24,C  23,C  21)     79.0262         0.017036   
    257. D(H  51,C  25,C  23,H  49)     56.6783         0.010048   
    258. D(H  51,C  25,C  23,O  24)    172.0741         0.010048   
    259. D(H  51,C  25,C  23,C  21)    -67.5735         0.010048   
    260. D(C  27,C  25,C  23,H  49)   -179.9723         0.010048   
    261. D(C  27,C  25,C  23,O  24)    -64.5765         0.010048   
    262. D(C  27,C  25,C  23,C  21)     55.7760         0.010048   
    263. D(O  26,C  25,C  23,H  49)    -58.0461         0.010048   
    264. D(O  26,C  25,C  23,O  24)     57.3497         0.010048   
    265. D(O  26,C  25,C  23,C  21)    177.7021         0.010048   
    266. D(H  52,O  26,C  25,H  51)   -165.8443         0.016509   
    267. D(H  52,O  26,C  25,C  27)     75.7992         0.016509   
    268. D(H  52,O  26,C  25,C  23)    -50.1030         0.016509   
    269. D(H  54,C  27,C  25,C  23)    -67.6576         0.010368   
    270. D(H  53,C  27,C  25,H  51)    173.6848         0.010368   
    271. D(H  53,C  27,C  25,O  26)    -70.4585         0.010368   
    272. D(H  53,C  27,C  25,C  23)     51.5810         0.010368   
    273. D(O  28,C  27,C  25,H  51)    -67.5603         0.010368   
    274. D(O  28,C  27,C  25,O  26)     48.2964         0.010368   
    275. D(H  54,C  27,C  25,O  26)    170.3029         0.010368   
    276. D(O  28,C  27,C  25,C  23)    170.3359         0.010368   
    277. D(H  54,C  27,C  25,H  51)     54.4462         0.010368   
    278. D(P  29,O  28,C  27,H  54)    -83.8537         0.019316   
    279. D(P  29,O  28,C  27,H  53)    160.8545         0.019316   
    280. D(P  29,O  28,C  27,C  25)     39.7122         0.019316   
    281. D(O  32,P  29,O  28,C  27)    161.9731         0.012970   
    282. D(O  31,P  29,O  28,C  27)    -92.7614         0.012970   
    283. D(O  30,P  29,O  28,C  27)     36.0404         0.012970   
    284. D(H  55,O  31,P  29,O  32)    159.2951         0.013719   
    285. D(H  55,O  31,P  29,O  30)    -75.6153         0.013719   
    286. D(H  55,O  31,P  29,O  28)     53.3441         0.013719   
    287. D(H  56,O  32,P  29,O  31)     74.9273         0.013341   
    288. D(H  56,O  32,P  29,O  30)    -51.3453         0.013341   
    289. D(H  56,O  32,P  29,O  28)   -178.5934         0.013341   
    -----------------------------------------------------------------

Number of atoms                         .... 57
Number of degrees of freedom            .... 289

         *************************************************************
         *                GEOMETRY OPTIMIZATION CYCLE   1            *
         *************************************************************
---------------------------------
CARTESIAN COORDINATES (ANGSTROEM)
---------------------------------
  O    -1.322400    0.531500   -3.551100
  C    -1.429100    0.206000   -2.361600
  C    -2.638300    0.627700   -1.547900
  C    -3.638700   -0.509600   -1.336700
  O    -4.408100   -0.651500   -2.540800
  C    -4.628400   -0.241100   -0.180600
  O    -5.256500    1.022400   -0.449400
  C    -3.936300   -0.243100    1.191500
  O    -4.856600   -0.566500    2.230800
  P    -5.770800    0.601200    2.814900
  O    -6.616600    1.324100    1.823500
  O    -4.806700    1.498300    3.706800
  O    -6.646200   -0.109000    3.942100
  C    -0.295600   -0.643500   -1.707700
  O     0.683700   -0.906700   -2.717100
  O    -0.793200   -1.923700   -1.337800
  C     0.345300    0.063100   -0.476400
  O    -0.596700   -0.140400    0.625800
  C     0.552600    1.560000   -0.735100
  O     1.110100    2.059900   -1.695300
  O     0.099200    2.348200    0.258900
  C     1.715800   -0.491100    0.012000
  O     1.486900   -1.792300    0.606500
  C     2.872300   -0.589800   -1.006400
  O     2.829800   -1.882200   -1.641000
  C     4.265400   -0.437100   -0.355800
  O     5.273900   -0.598000   -1.377600
  C     4.566200   -1.425000    0.787300
  O     5.920000   -1.417300    1.227800
  P     6.705600   -0.027000    1.346600
  O     5.912500    1.151000    1.800400
  O     7.422700    0.106900   -0.069900
  O     7.934700   -0.404500    2.294300
  H    -3.111100    1.453000   -2.096100
  H    -2.291200    1.053900   -0.606600
  H    -3.147100   -1.470000   -1.168200
  H    -5.009100    0.120700   -2.568900
  H    -5.428500   -0.991000   -0.205700
  H    -5.929200    1.195800    0.246300
  H    -3.468800    0.722300    1.412100
  H    -3.164300   -1.017600    1.224600
  H    -4.567300    1.024800    4.522700
  H    -7.554300   -0.270700    3.618800
  H     0.215500   -0.743400   -3.570900
  H    -0.544900   -2.066600   -0.404200
  H    -0.072100   -0.330800    1.431700
  H     0.287700    3.269300   -0.033500
  H     2.037600    0.154900    0.841300
  H     1.821100   -2.448500   -0.046600
  H     2.801500    0.168400   -1.792500
  H     2.119600   -1.814300   -2.323000
  H     4.355500    0.591500    0.002800
  H     5.026100   -1.430000   -1.837900
  H     4.367600   -2.446400    0.459600
  H     3.932900   -1.219700    1.650900
  H     6.773100    0.013600   -0.807400
  H     8.493600    0.372000    2.470000

----------------------------
CARTESIAN COORDINATES (A.U.)
----------------------------
  NO LB    ZA    FRAG    MASS        X           Y           Z
   0 O   8.0000    0    15.999   -2.498974    1.004389   -6.710606
   1 C   6.0000    0    12.011   -2.700608    0.389284   -4.462777
   2 C   6.0000    0    12.011   -4.985664    1.186181   -2.925107
   3 C   6.0000    0    12.011   -6.876146   -0.963004   -2.525997
   4 O   8.0000    0    15.999   -8.330102   -1.231157   -4.801416
   5 C   6.0000    0    12.011   -8.746408   -0.455613   -0.341285
   6 O   8.0000    0    15.999   -9.933345    1.932056   -0.849243
   7 C   6.0000    0    12.011   -7.438529   -0.459392    2.251609
   8 O   8.0000    0    15.999   -9.177644   -1.070530    4.215601
   9 P  15.0000    0    30.974  -10.905232    1.136103    5.319390
  10 O   8.0000    0    15.999  -12.503562    2.502186    3.445916
  11 O   8.0000    0    15.999   -9.083347    2.831377    7.004837
  12 O   8.0000    0    15.999  -12.559498   -0.205980    7.449489
  13 C   6.0000    0    12.011   -0.558603   -1.216039   -3.227085
  14 O   8.0000    0    15.999    1.292006   -1.713415   -5.134575
  15 O   8.0000    0    15.999   -1.498931   -3.635266   -2.528076
  16 C   6.0000    0    12.011    0.652522    0.119242   -0.900266
  17 O   8.0000    0    15.999   -1.127600   -0.265318    1.182591
  18 C   6.0000    0    12.011    1.044263    2.947973   -1.389138
  19 O   8.0000    0    15.999    2.097785    3.892647   -3.203653
  20 O   8.0000    0    15.999    0.187461    4.437455    0.489250
  21 C   6.0000    0    12.011    3.242392   -0.928045    0.022677
  22 O   8.0000    0    15.999    2.809834   -3.386956    1.146119
  23 C   6.0000    0    12.011    5.427860   -1.114560   -1.901820
  24 O   8.0000    0    15.999    5.347547   -3.556843   -3.101041
  25 C   6.0000    0    12.011    8.060438   -0.825999   -0.672365
  26 O   8.0000    0    15.999    9.966227   -1.130056   -2.603287
  27 C   6.0000    0    12.011    8.628867   -2.692860    1.487781
  28 O   8.0000    0    15.999   11.187179   -2.678309    2.320206
  29 P  15.0000    0    30.974   12.671748   -0.051023    2.544705
  30 O   8.0000    0    15.999   11.173006    2.175075    3.402263
  31 O   8.0000    0    15.999   14.026870    0.202012   -0.132092
  32 O   8.0000    0    15.999   14.994410   -0.764394    4.335599
  33 H   1.0000    0     1.008   -5.879127    2.745772   -3.961055
  34 H   1.0000    0     1.008   -4.329741    1.991582   -1.146308
  35 H   1.0000    0     1.008   -5.947157   -2.777897   -2.207578
  36 H   1.0000    0     1.008   -9.465827    0.228090   -4.854517
  37 H   1.0000    0     1.008  -10.258378   -1.872719   -0.388717
  38 H   1.0000    0     1.008  -11.204564    2.259735    0.465440
  39 H   1.0000    0     1.008   -6.555082    1.364949    2.668482
  40 H   1.0000    0     1.008   -5.979660   -1.922985    2.314159
  41 H   1.0000    0     1.008   -8.630946    1.936591    8.546664
  42 H   1.0000    0     1.008  -14.275558   -0.511549    6.838541
  43 H   1.0000    0     1.008    0.407236   -1.404822   -6.748023
  44 H   1.0000    0     1.008   -1.029712   -3.905308   -0.763827
  45 H   1.0000    0     1.008   -0.136249   -0.625121    2.705521
  46 H   1.0000    0     1.008    0.543674    6.178082   -0.063306
  47 H   1.0000    0     1.008    3.850506    0.292719    1.589827
  48 H   1.0000    0     1.008    3.441380   -4.626994   -0.088061
  49 H   1.0000    0     1.008    5.294068    0.318230   -3.387334
  50 H   1.0000    0     1.008    4.005464   -3.428530   -4.389834
  51 H   1.0000    0     1.008    8.230702    1.117773    0.005291
  52 H   1.0000    0     1.008    9.497953   -2.702308   -3.473128
  53 H   1.0000    0     1.008    8.253568   -4.623026    0.868518
  54 H   1.0000    0     1.008    7.432104   -2.304899    3.119749
  55 H   1.0000    0     1.008   12.799304    0.025700   -1.525765
  56 H   1.0000    0     1.008   16.050578    0.702978    4.667624

      -----------------------------------------------------------      
     |                   =====================                   |     
     |                           x T B                           |     
     |                   =====================                   |     
     |                         S. Grimme                         |     
     |          Mulliken Center for Theoretical Chemistry        |     
     |                    University of Bonn                     |     
      -----------------------------------------------------------      

   * xtb version 6.5.1 (579679a) compiled by 'ehlert@majestix' on 2022-07-11

   xtb is free software: you can redistribute it and/or modify it under
   the terms of the GNU Lesser General Public License as published by
   the Free Software Foundation, either version 3 of the License, or
   (at your option) any later version.
   
   xtb is distributed in the hope that it will be useful,
   but WITHOUT ANY WARRANTY; without even the implied warranty of
   MERCHANTABILITY or FITNESS FOR A PARTICULAR PURPOSE.  See the
   GNU Lesser General Public License for more details.
   
   Cite this work as:
   * C. Bannwarth, E. Caldeweyher, S. Ehlert, A. Hansen, P. Pracht,
     J. Seibert, S. Spicher, S. Grimme, WIREs Comput. Mol. Sci., 2020, 11,
     e01493. DOI: 10.1002/wcms.1493
   
   for GFN2-xTB:
   * C. Bannwarth, S. Ehlert and S. Grimme., J. Chem. Theory Comput., 2019,
     15, 1652-1671. DOI: 10.1021/acs.jctc.8b01176
   for GFN1-xTB:
   * S. Grimme, C. Bannwarth, P. Shushkov, J. Chem. Theory Comput., 2017,
     13, 1989-2009. DOI: 10.1021/acs.jctc.7b00118
   for GFN0-xTB:
   * P. Pracht, E. Caldeweyher, S. Ehlert, S. Grimme, ChemRxiv, 2019, preprint.
     DOI: 10.26434/chemrxiv.8326202.v1
   for GFN-FF:
   * S. Spicher and S. Grimme, Angew. Chem. Int. Ed., 2020, 59, 15665-15673.
     DOI: 10.1002/anie.202004239
   
   for ALPB and GBSA implicit solvation:
   * S. Ehlert, M. Stahn, S. Spicher, S. Grimme, J. Chem. Theory Comput.,
     2021, 17, 4250-4261. DOI: 10.1021/acs.jctc.1c00471
   
   for DFT-D4:
   * E. Caldeweyher, C. Bannwarth and S. Grimme, J. Chem. Phys., 2017,
     147, 034112. DOI: 10.1063/1.4993215
   * E. Caldeweyher, S. Ehlert, A. Hansen, H. Neugebauer, S. Spicher,
     C. Bannwarth and S. Grimme, J. Chem. Phys., 2019, 150, 154122.
     DOI: 10.1063/1.5090222
   * E. Caldeweyher, J.-M. Mewes, S. Ehlert and S. Grimme, Phys. Chem. Chem. Phys.
     2020, 22, 8499-8512. DOI: 10.1039/D0CP00502A
   
   for sTDA-xTB:
   * S. Grimme and C. Bannwarth, J. Chem. Phys., 2016, 145, 054103.
     DOI: 10.1063/1.4959605
   
   in the mass-spec context:
   * V. Asgeirsson, C. Bauer and S. Grimme, Chem. Sci., 2017, 8, 4879.
     DOI: 10.1039/c7sc00601b
   * J. Koopman and S. Grimme, ACS Omega 2019, 4, 12, 15120-15133.
     DOI: 10.1021/acsomega.9b02011
   
   for metadynamics refer to:
   * S. Grimme, J. Chem. Theory Comput., 2019, 155, 2847-2862
     DOI: 10.1021/acs.jctc.9b00143
   
   for SPH calculations refer to:
   * S. Spicher and S. Grimme, J. Chem. Theory Comput., 2021, 17, 1701-1714
     DOI: 10.1021/acs.jctc.0c01306
   
   with help from (in alphabetical order)
   P. Atkinson, C. Bannwarth, F. Bohle, G. Brandenburg, E. Caldeweyher
   M. Checinski, S. Dohm, S. Ehlert, S. Ehrlich, I. Gerasimov, C. Hölzer
   A. Katbashev, J. Koopman, C. Lavigne, S. Lehtola, F. März, M. Müller,
   F. Musil, H. Neugebauer, J. Pisarek, C. Plett, P. Pracht, F. Pultar,
   J. Seibert, P. Shushkov, S. Spicher, M. Stahn, M. Steiner, T. Strunk,
   J. Stückrath, T. Rose, and J. Unsleber
   
 * started run on 2023/12/06 at 22:51:37.203     

           -------------------------------------------------
          |                Calculation Setup                |
           -------------------------------------------------

          program call               : otool_xtb /tmp/26_XTB.xyz --grad -c 0 -u 0 -P 1 --namespace /tmp/26 --input /tmp/26_XTB.input.tmp --acc 1.000000
          calculation namespace      : /tmp/26
          coordinate file            : /tmp/26_XTB.xyz
          omp threads                :                     1

   ID    Z sym.   atoms
    1    8 O      1, 5, 7, 9, 11-13, 15, 16, 18, 20, 21, 23, 25, 27, 29, 31-33
    2    6 C      2-4, 6, 8, 14, 17, 19, 22, 24, 26, 28
    3   15 P      10, 30
    4    1 H      34-57

           -------------------------------------------------
          |                 G F N 2 - x T B                 |
           -------------------------------------------------

        Reference                      10.1021/acs.jctc.8b01176
      * Hamiltonian:
        H0-scaling (s, p, d)           1.850000    2.230000    2.230000
        zeta-weighting                 0.500000
      * Dispersion:
        s8                             2.700000
        a1                             0.520000
        a2                             5.000000
        s9                             5.000000
      * Repulsion:
        kExp                           1.500000    1.000000
        rExp                           1.000000
      * Coulomb:
        alpha                          2.000000
        third order                    shell-resolved
        anisotropic                    true
        a3                             3.000000
        a5                             4.000000
        cn-shift                       1.200000
        cn-exp                         4.000000
        max-rad                        5.000000


          ...................................................
          :                      SETUP                      :
          :.................................................:
          :  # basis functions                 168          :
          :  # atomic orbitals                 166          :
          :  # shells                           92          :
          :  # electrons                       196          :
          :  max. iterations                   250          :
          :  Hamiltonian                  GFN2-xTB          :
          :  restarted?                      false          :
          :  GBSA solvation                  false          :
          :  PC potential                    false          :
          :  electronic temp.          300.0000000     K    :
          :  accuracy                    1.0000000          :
          :  -> integral cutoff          0.2500000E+02      :
          :  -> integral neglect         0.1000000E-07      :
          :  -> SCF convergence          0.1000000E-05 Eh   :
          :  -> wf. convergence          0.1000000E-03 e    :
          :  Broyden damping             0.4000000          :
          ...................................................

 iter      E             dE          RMSdq      gap      omega  full diag
   1   -121.0564028 -0.121056E+03  0.643E+00    3.85       0.0  T
   2   -121.2150532 -0.158650E+00  0.354E+00    3.12       1.0  T
   3   -121.2194376 -0.438437E-02  0.134E+00    3.44       1.0  T
   4   -121.2541991 -0.347615E-01  0.524E-01    2.97       1.0  T
   5   -121.2562437 -0.204464E-02  0.220E-01    3.25       1.0  T
   6   -121.2569505 -0.706788E-03  0.829E-02    3.16       1.0  T
   7   -121.2570400 -0.894413E-04  0.472E-02    3.17       1.0  T
   8   -121.2570510 -0.110180E-04  0.132E-02    3.17       1.0  T
   9   -121.2570528 -0.178057E-05  0.596E-03    3.17       2.2  T
  10   -121.2570530 -0.196772E-06  0.188E-03    3.17       7.1  T
  11   -121.2570530 -0.415101E-07  0.735E-04    3.17      18.0  T
  12   -121.2570530 -0.402704E-08  0.276E-04    3.17      48.0  T

   *** convergence criteria satisfied after 12 iterations ***

         #    Occupation            Energy/Eh            Energy/eV
      -------------------------------------------------------------
         1        2.0000           -0.7829743             -21.3058
       ...           ...                  ...                  ...
        92        2.0000           -0.4451741             -12.1138
        93        2.0000           -0.4400322             -11.9739
        94        2.0000           -0.4303547             -11.7105
        95        2.0000           -0.4248724             -11.5614
        96        2.0000           -0.4240057             -11.5378
        97        2.0000           -0.4217593             -11.4767
        98        2.0000           -0.4184037             -11.3853 (HOMO)
        99                         -0.3018886              -8.2148 (LUMO)
       100                         -0.2871156              -7.8128
       101                         -0.0960267              -2.6130
       102                         -0.0943198              -2.5666
       103                         -0.0883091              -2.4030
       ...                                ...                  ...
       166                          1.2158711              33.0855
      -------------------------------------------------------------
                  HL-Gap            0.1165151 Eh            3.1705 eV
             Fermi-level           -0.3601462 Eh           -9.8001 eV

 SCC (total)                   0 d,  0 h,  0 min,  0.129 sec
 SCC setup                      ...        0 min,  0.000 sec (  0.348%)
 Dispersion                     ...        0 min,  0.001 sec (  0.584%)
 classical contributions        ...        0 min,  0.000 sec (  0.130%)
 integral evaluation            ...        0 min,  0.016 sec ( 12.332%)
 iterations                     ...        0 min,  0.055 sec ( 42.626%)
 molecular gradient             ...        0 min,  0.056 sec ( 43.469%)
 printout                       ...        0 min,  0.001 sec (  0.492%)

         :::::::::::::::::::::::::::::::::::::::::::::::::::::
         ::                     SUMMARY                     ::
         :::::::::::::::::::::::::::::::::::::::::::::::::::::
         :: total energy            -120.521114669061 Eh    ::
         :: gradient norm              0.143003547612 Eh/a0 ::
         :: HOMO-LUMO gap              3.170536355121 eV    ::
         ::.................................................::
         :: SCC energy              -121.257053003412 Eh    ::
         :: -> isotropic ES            0.476032909968 Eh    ::
         :: -> anisotropic ES         -0.024008149172 Eh    ::
         :: -> anisotropic XC         -0.014216481253 Eh    ::
         :: -> dispersion             -0.063295232346 Eh    ::
         :: repulsion energy           0.735080892479 Eh    ::
         :: add. restraining           0.000000000000 Eh    ::
         :: total charge              -0.000000000000 e     ::
         :::::::::::::::::::::::::::::::::::::::::::::::::::::


Property printout bound to 'properties.out'

           -------------------------------------------------
          | TOTAL ENERGY             -120.521114669061 Eh   |
          | GRADIENT NORM               0.143003547612 Eh/α |
          | HOMO-LUMO GAP               3.170536355121 eV   |
           -------------------------------------------------

------------------------------------------------------------------------
 * finished run on 2023/12/06 at 22:51:37.356     
------------------------------------------------------------------------
 total:
 * wall-time:     0 d,  0 h,  0 min,  0.153 sec
 *  cpu-time:     0 d,  0 h,  0 min,  0.152 sec
 * ratio c/w:     0.995 speedup
 SCF:
 * wall-time:     0 d,  0 h,  0 min,  0.130 sec
 *  cpu-time:     0 d,  0 h,  0 min,  0.132 sec
 * ratio c/w:     1.017 speedup


-------------------------   --------------------
FINAL SINGLE POINT ENERGY      -120.521114669060
-------------------------   --------------------

------------------------------------------------------------------------------
                         ORCA GEOMETRY RELAXATION STEP
------------------------------------------------------------------------------

Reading the OPT-File                    .... done
Getting information on internals        .... done
Copying old internal coords+grads       .... done
Making the new internal coordinates     .... (new redundants).... done
Validating the new internal coordinates .... (new redundants).... done
Calculating the B-matrix                .... done
Calculating the G,G- and P matrices     .... done
Transforming gradient to internals      .... done
Projecting the internal gradient        .... done
Number of atoms                         ....  57
Number of internal coordinates          .... 289
Current Energy                          ....  -120.521114669 Eh
Current gradient norm                   ....     0.143003548 Eh/bohr
Maximum allowed component of the step   ....  0.300
Current trust radius                    ....  0.300
Evaluating the initial hessian          ....  (Almloef) done
Projecting the Hessian                  .... done
Forming the augmented Hessian           .... done
Diagonalizing the augmented Hessian     .... done
Last element of RFO vector              ....  0.905568503
Lowest eigenvalues of augmented Hessian:
 -0.036784135  0.008542534  0.009280082  0.009355114  0.009990546
Length of the computed step             ....  0.468435081
Warning: the length of the step is outside the trust region - taking restricted step instead
The input lambda is                     ....    -0.036784
   iter:   1  x=   -0.057833  g=    6.149080 f(x)=     0.129431
   iter:   2  x=   -0.078168  g=    2.385765 f(x)=     0.048514
   iter:   3  x=   -0.088512  g=    1.269426 f(x)=     0.013131
   iter:   4  x=   -0.090119  g=    0.982858 f(x)=     0.001579
   iter:   5  x=   -0.090149  g=    0.947406 f(x)=     0.000029
   iter:   6  x=   -0.090149  g=    0.946755 f(x)=     0.000000
   iter:   7  x=   -0.090149  g=    0.946755 f(x)=     0.000000
The output lambda is                    ....    -0.090149 (7 iterations)
The final length of the internal step   ....  0.300000000
Converting the step to cartesian space:
 Initial RMS(Int)=    0.0176470588
Transforming coordinates:
 Iter   0:  RMS(Cart)=    0.2201689576 RMS(Int)=    0.5222679950
 Iter   1:  RMS(Cart)=    0.0113643027 RMS(Int)=    0.0044377805
 Iter   2:  RMS(Cart)=    0.0014314946 RMS(Int)=    0.0002525305
 Iter   3:  RMS(Cart)=    0.0002212677 RMS(Int)=    0.0001042786
 Iter   4:  RMS(Cart)=    0.0000342008 RMS(Int)=    0.0000078073
 Iter   5:  RMS(Cart)=    0.0000055524 RMS(Int)=    0.0000026364
 Iter   6:  RMS(Cart)=    0.0000009109 RMS(Int)=    0.0000002412
 Iter   7:  RMS(Cart)=    0.0000001488 RMS(Int)=    0.0000000687
 Iter   8:  RMS(Cart)=    0.0000000251 RMS(Int)=    0.0000000074
done
Storing new coordinates                 .... done

                                .--------------------.
          ----------------------|Geometry convergence|-------------------------
          Item                value                   Tolerance       Converged
          ---------------------------------------------------------------------
          RMS gradient        0.0073058478            0.0001000000      NO
          MAX gradient        0.0490039919            0.0003000000      NO
          RMS step            0.0176470588            0.0020000000      NO
          MAX step            0.0813342825            0.0040000000      NO
          ........................................................
          Max(Bonds)      0.0306      Max(Angles)    2.45
          Max(Dihed)        4.66      Max(Improp)    0.00
          ---------------------------------------------------------------------

The optimization has not yet converged - more geometry cycles are needed


    ---------------------------------------------------------------------------
                         Redundant Internal Coordinates
                            (Angstroem and degrees)

        Definition                    Value    dE/dq     Step     New-Value
    ----------------------------------------------------------------------------
     1. B(C   1,O   0)                1.2378  0.049004 -0.0243    1.2136   
     2. B(C   2,C   1)                1.5173  0.014396 -0.0158    1.5015   
     3. B(C   3,C   2)                1.5293 -0.001745  0.0020    1.5313   
     4. B(O   4,C   3)                1.4360  0.019153 -0.0180    1.4179   
     5. B(C   5,C   3)                1.5454  0.005869 -0.0070    1.5384   
     6. B(O   6,C   5)                1.4364  0.014884 -0.0140    1.4224   
     7. B(C   7,C   5)                1.5368  0.002095 -0.0024    1.5343   
     8. B(O   8,C   7)                1.4254 -0.004197  0.0038    1.4292   
     9. B(P   9,O   8)                1.5939 -0.002938  0.0016    1.5955   
    10. B(O  10,P   9)                1.4902  0.028630 -0.0109    1.4794   
    11. B(O  11,P   9)                1.5905  0.002816 -0.0015    1.5890   
    12. B(O  12,P   9)                1.5941  0.004227 -0.0023    1.5919   
    13. B(C  13,C   1)                1.5601  0.014310 -0.0178    1.5423   
    14. B(O  14,C  13)                1.4308  0.019515 -0.0181    1.4127   
    15. B(O  15,C  13)                1.4224  0.013992 -0.0126    1.4098   
    16. B(C  16,C  13)                1.5576  0.006959 -0.0086    1.5490   
    17. B(O  17,C  16)                1.4641  0.029905 -0.0306    1.4335   
    18. B(C  18,C  16)                1.5332  0.009674 -0.0111    1.5220   
    19. B(O  19,C  18)                1.2177  0.028248 -0.0131    1.2046   
    20. B(O  20,C  18)                1.3472  0.011993 -0.0085    1.3387   
    21. B(C  21,C  16)                1.5569 -0.000084  0.0001    1.5570   
    22. B(O  22,C  21)                1.4488  0.025341 -0.0248    1.4240   
    23. B(C  23,C  21)                1.5441  0.005831 -0.0069    1.5372   
    24. B(O  24,C  23)                1.4404  0.013707 -0.0131    1.4274   
    25. B(C  25,C  23)                1.5451  0.008712 -0.0104    1.5347   
    26. B(O  26,C  25)                1.4447  0.020528 -0.0198    1.4248   
    27. B(C  27,C  25)                1.5405  0.004883 -0.0057    1.5347   
    28. B(O  28,C  27)                1.4237  0.004328 -0.0039    1.4198   
    29. B(P  29,O  28)                1.6013 -0.002953  0.0016    1.6030   
    30. B(O  30,P  29)                1.4908  0.025592 -0.0098    1.4811   
    31. B(O  31,P  29)                1.5933  0.002023 -0.0011    1.5922   
    32. B(O  32,P  29)                1.5973  0.011912 -0.0065    1.5908   
    33. B(H  33,C   2)                1.0978  0.003312 -0.0040    1.0938   
    34. B(H  34,C   2)                1.0900 -0.000772  0.0009    1.0909   
    35. B(H  35,C   3)                1.0920  0.000844 -0.0010    1.0910   
    36. B(H  36,O   4)                0.9789  0.009672 -0.0089    0.9700   
    37. B(H  37,C   5)                1.0969 -0.000691  0.0008    1.0977   
    38. B(H  38,O   6)                0.9832  0.006216 -0.0058    0.9774   
    39. B(H  39,C   7)                1.0951  0.001361 -0.0016    1.0935   
    40. B(H  40,C   7)                1.0940  0.000768 -0.0009    1.0931   
    41. B(H  41,O  11)                0.9732  0.012975 -0.0117    0.9615   
    42. B(H  42,O  12)                0.9774  0.017746 -0.0162    0.9612   
    43. B(H  43,O  14)                0.9873  0.008357 -0.0079    0.9795   
    44. B(H  44,O  15)                0.9766  0.006123 -0.0056    0.9710   
    45. B(H  45,O  17)                0.9803  0.012498 -0.0115    0.9687   
    46. B(H  46,O  20)                0.9846  0.008990 -0.0084    0.9762   
    47. B(H  47,C  21)                1.0994  0.000859 -0.0010    1.0983   
    48. B(H  48,O  22)                0.9843  0.007014 -0.0066    0.9777   
    49. B(H  49,C  23)                1.0945  0.000076 -0.0001    1.0944   
    50. B(H  50,O  24)                0.9870  0.010428 -0.0098    0.9771   
    51. B(H  51,C  25)                1.0930  0.000005 -0.0000    1.0930   
    52. B(H  52,O  26)                0.9826  0.010248 -0.0095    0.9731   
    53. B(H  53,C  27)                1.0909 -0.002397  0.0028    1.0937   
    54. B(H  54,C  27)                1.0904 -0.002774  0.0033    1.0937   
    55. B(H  55,O  31)                0.9872  0.015172 -0.0143    0.9729   
    56. B(H  56,O  32)                0.9727  0.015221 -0.0137    0.9590   
    57. A(C   2,C   1,C  13)          120.37  0.008161   -0.98    119.39   
    58. A(O   0,C   1,C   2)          120.73 -0.015313    1.73    122.46   
    59. A(O   0,C   1,C  13)          118.90  0.007150   -0.75    118.15   
    60. A(H  33,C   2,H  34)          105.93 -0.003327    0.98    106.91   
    61. A(C   3,C   2,H  33)          110.26  0.001627   -0.32    109.94   
    62. A(C   1,C   2,C   3)          112.87  0.003213   -0.61    112.27   
    63. A(C   3,C   2,H  34)          112.32  0.003180   -0.74    111.58   
    64. A(C   1,C   2,H  33)          106.52 -0.002917    0.56    107.09   
    65. A(C   1,C   2,H  34)          108.54 -0.002530    0.29    108.83   
    66. A(C   5,C   3,H  35)          109.01 -0.004099    0.47    109.47   
    67. A(O   4,C   3,C   5)          107.54 -0.001912    0.47    108.01   
    68. A(C   2,C   3,O   4)          107.95 -0.006364    1.14    109.09   
    69. A(C   2,C   3,C   5)          113.14  0.008239   -1.20    111.94   
    70. A(C   2,C   3,H  35)          112.39  0.000547   -0.36    112.02   
    71. A(O   4,C   3,H  35)          106.48  0.003197   -0.43    106.05   
    72. A(C   3,O   4,H  36)          105.97  0.000030   -0.00    105.96   
    73. A(C   3,C   5,C   7)          112.29 -0.001625   -0.07    112.22   
    74. A(C   3,C   5,O   6)          107.03  0.006212   -1.01    106.02   
    75. A(C   3,C   5,H  37)          109.34  0.000825   -0.40    108.94   
    76. A(C   7,C   5,H  37)          110.37  0.003321   -0.54    109.83   
    77. A(O   6,C   5,H  37)          106.15 -0.004873    1.32    107.47   
    78. A(O   6,C   5,C   7)          111.42 -0.003940    0.76    112.18   
    79. A(C   5,O   6,H  38)          108.78 -0.000409    0.05    108.83   
    80. A(C   5,C   7,O   8)          111.13 -0.010711    1.44    112.57   
    81. A(H  39,C   7,H  40)          108.47 -0.002624    0.20    108.67   
    82. A(O   8,C   7,H  40)          105.84  0.005714   -0.89    104.95   
    83. A(C   5,C   7,H  40)          110.23  0.002176   -0.46    109.76   
    84. A(C   5,C   7,H  39)          111.78  0.006108   -0.77    111.01   
    85. A(O   8,C   7,H  39)          109.19 -0.000584    0.46    109.66   
    86. A(C   7,O   8,P   9)          118.12 -0.015134    1.55    119.67   
    87. A(O  10,P   9,O  12)          112.01 -0.004530    0.59    112.61   
    88. A(O   8,P   9,O  12)          104.34  0.011496   -1.23    103.12   
    89. A(O  10,P   9,O  11)          116.33  0.005231   -0.43    115.90   
    90. A(O   8,P   9,O  11)          105.73  0.000265   -0.13    105.59   
    91. A(O   8,P   9,O  10)          115.92 -0.003234    0.17    116.09   
    92. A(O  11,P   9,O  12)          100.81 -0.009084    1.02    101.84   
    93. A(P   9,O  11,H  41)          110.17 -0.001263    0.14    110.31   
    94. A(P   9,O  12,H  42)          110.49  0.001146   -0.13    110.36   
    95. A(O  14,C  13,O  15)          104.91 -0.007929    2.11    107.02   
    96. A(O  15,C  13,C  16)          110.28  0.001616   -0.15    110.13   
    97. A(O  14,C  13,C  16)          111.07 -0.000655    0.22    111.29   
    98. A(C   1,C  13,O  14)          107.56  0.003148   -0.67    106.89   
    99. A(C   1,C  13,C  16)          112.54  0.002121   -0.97    111.57   
   100. A(C   1,C  13,O  15)          110.17  0.001050   -0.35    109.83   
   101. A(C  13,O  14,H  43)          104.78 -0.003968    0.52    105.30   
   102. A(C  13,O  15,H  44)          106.94 -0.005521    0.71    107.65   
   103. A(C  13,C  16,C  21)          116.66 -0.003862    0.79    117.45   
   104. A(O  17,C  16,C  18)          110.47 -0.000895    0.00    110.47   
   105. A(C  13,C  16,C  18)          111.42  0.003599   -0.76    110.66   
   106. A(C  13,C  16,O  17)          105.50  0.001372   -0.37    105.14   
   107. A(C  18,C  16,C  21)          106.35 -0.000621    0.22    106.57   
   108. A(O  17,C  16,C  21)          106.30  0.000287    0.13    106.44   
   109. A(C  16,O  17,H  45)          107.55 -0.001240    0.16    107.72   
   110. A(O  19,C  18,O  20)          119.72 -0.014876    1.56    121.27   
   111. A(C  16,C  18,O  20)          113.66  0.004482   -0.47    113.19   
   112. A(C  16,C  18,O  19)          126.57  0.010399   -1.09    125.48   
   113. A(C  18,O  20,H  46)          105.30 -0.010784    1.35    106.64   
   114. A(C  23,C  21,H  47)          108.41 -0.000455    0.03    108.45   
   115. A(O  22,C  21,H  47)          105.33 -0.002183    0.52    105.86   
   116. A(C  16,C  21,H  47)          106.57  0.003031   -0.61    105.96   
   117. A(O  22,C  21,C  23)          109.36  0.002670   -0.33    109.03   
   118. A(C  16,C  21,C  23)          118.37 -0.002141    0.23    118.60   
   119. A(C  16,C  21,O  22)          108.02 -0.001023    0.19    108.21   
   120. A(C  21,O  22,H  48)          105.83  0.002904   -0.38    105.45   
   121. A(C  25,C  23,H  49)          107.00 -0.002943    0.45    107.45   
   122. A(O  24,C  23,H  49)          107.65 -0.003267    1.08    108.74   
   123. A(C  21,C  23,H  49)          112.39  0.003051   -0.56    111.84   
   124. A(O  24,C  23,C  25)          107.50  0.003911   -0.71    106.79   
   125. A(C  21,C  23,C  25)          113.03  0.002690   -0.71    112.33   
   126. A(C  21,C  23,O  24)          109.02 -0.003607    0.51    109.52   
   127. A(C  23,O  24,H  50)          105.30 -0.002886    0.38    105.68   
   128. A(C  27,C  25,H  51)          110.12 -0.000101    0.14    110.25   
   129. A(C  23,C  25,H  51)          107.79 -0.005438    0.75    108.53   
   130. A(O  26,C  25,H  51)          106.22  0.000969    0.25    106.47   
   131. A(O  26,C  25,C  27)          108.49 -0.010200    1.54    110.03   
   132. A(C  23,C  25,C  27)          115.16  0.009514   -1.60    113.56   
   133. A(C  23,C  25,O  26)          108.70  0.004832   -0.97    107.73   
   134. A(C  25,O  26,H  52)          104.45 -0.004786    0.63    105.08   
   135. A(O  28,C  27,H  54)          107.83  0.003485   -0.45    107.38   
   136. A(C  25,C  27,H  54)          110.70  0.004656   -0.75    109.96   
   137. A(O  28,C  27,H  53)          105.73  0.001943   -0.05    105.68   
   138. A(H  53,C  27,H  54)          107.97 -0.002964    0.32    108.28   
   139. A(C  25,C  27,H  53)          110.00  0.003841   -0.50    109.50   
   140. A(C  25,C  27,O  28)          114.32 -0.010858    1.42    115.74   
   141. A(C  27,O  28,P  29)          119.61 -0.008265    0.85    120.46   
   142. A(O  31,P  29,O  32)          101.60  0.003322   -0.29    101.31   
   143. A(O  30,P  29,O  32)          114.55 -0.004718    0.06    114.61   
   144. A(O  28,P  29,O  32)          102.49  0.013925   -1.75    100.75   
   145. A(O  30,P  29,O  31)          116.34  0.002062    0.15    116.49   
   146. A(O  28,P  29,O  31)          103.17 -0.020493    2.45    105.62   
   147. A(O  28,P  29,O  30)          116.59  0.005802   -0.63    115.97   
   148. A(P  29,O  31,H  55)          111.10  0.000639   -0.07    111.03   
   149. A(P  29,O  32,H  56)          111.14  0.006000   -0.68    110.46   
   150. D(C   3,C   2,C   1,O   0)    103.59 -0.000815    0.25    103.83   
   151. D(H  33,C   2,C   1,O   0)    -17.56 -0.002806    0.62    -16.93   
   152. D(H  34,C   2,C   1,O   0)   -131.22  0.003677   -0.92   -132.15   
   153. D(C   3,C   2,C   1,C  13)    -76.61 -0.001344    0.56    -76.05   
   154. D(H  34,C   2,C   1,C  13)     48.58  0.003147   -0.61     47.97   
   155. D(H  33,C   2,C   1,C  13)    162.25 -0.003335    0.94    163.18   
   156. D(H  35,C   3,C   2,H  34)    -84.81 -0.001374    0.65    -84.16   
   157. D(C   5,C   3,C   2,H  34)     39.19  0.000031    0.05     39.24   
   158. D(O   4,C   3,C   2,H  34)    158.06 -0.001603    0.67    158.74   
   159. D(C   5,C   3,C   2,C   1)    162.30  0.001584   -0.60    161.70   
   160. D(C   5,C   3,C   2,H  33)    -78.70  0.001109   -0.50    -79.20   
   161. D(O   4,C   3,C   2,H  33)     40.17 -0.000524    0.12     40.30   
   162. D(H  35,C   3,C   2,C   1)     38.31  0.000179    0.00     38.31   
   163. D(O   4,C   3,C   2,C   1)    -78.82 -0.000050    0.02    -78.80   
   164. D(H  35,C   3,C   2,H  33)    157.30 -0.000295    0.10    157.41   
   165. D(H  36,O   4,C   3,H  35)    166.53 -0.001239    0.32    166.85   
   166. D(H  36,O   4,C   3,C   2)    -72.58 -0.002248    0.26    -72.32   
   167. D(H  36,O   4,C   3,C   5)     49.80  0.002837   -0.24     49.57   
   168. D(H  37,C   5,C   3,O   4)     50.08 -0.000631    0.46     50.54   
   169. D(H  37,C   5,C   3,C   2)    169.19 -0.004865    1.48    170.67   
   170. D(C   7,C   5,C   3,H  35)     57.88  0.002441   -0.54     57.33   
   171. D(O   6,C   5,C   3,O   4)    -64.50  0.001396   -0.35    -64.84   
   172. D(C   7,C   5,C   3,C   2)    -67.95 -0.001139    0.45    -67.50   
   173. D(O   6,C   5,C   3,H  35)   -179.55  0.000742   -0.33   -179.88   
   174. D(O   6,C   5,C   3,C   2)     54.62 -0.002838    0.67     55.29   
   175. D(H  37,C   5,C   3,H  35)    -64.98 -0.001285    0.48    -64.50   
   176. D(C   7,C   5,C   3,O   4)    172.93  0.003095   -0.56    172.37   
   177. D(H  38,O   6,C   5,H  37)     60.21 -0.002210    0.98     61.19   
   178. D(H  38,O   6,C   5,C   3)    176.91 -0.000671    0.68    177.59   
   179. D(H  38,O   6,C   5,C   7)    -59.98 -0.000987    0.39    -59.59   
   180. D(O   8,C   7,C   5,C   3)   -155.10 -0.002948    1.46   -153.64   
   181. D(H  40,C   7,C   5,O   6)   -158.13 -0.005170    1.76   -156.37   
   182. D(H  40,C   7,C   5,C   3)    -38.08 -0.001086    0.95    -37.13   
   183. D(H  39,C   7,C   5,H  37)   -155.09  0.003463   -0.58   -155.67   
   184. D(H  39,C   7,C   5,O   6)    -37.42 -0.002938    1.19    -36.23   
   185. D(H  39,C   7,C   5,C   3)     82.63  0.001147    0.38     83.01   
   186. D(O   8,C   7,C   5,H  37)    -32.82 -0.000632    0.50    -32.31   
   187. D(H  40,C   7,C   5,H  37)     84.20  0.001230   -0.01     84.19   
   188. D(O   8,C   7,C   5,O   6)     84.85 -0.007032    2.27     87.12   
   189. D(P   9,O   8,C   7,H  40)    157.46 -0.000058    0.03    157.49   
   190. D(P   9,O   8,C   7,H  39)     40.88  0.000257    0.05     40.93   
   191. D(P   9,O   8,C   7,C   5)    -82.88  0.000171   -0.28    -83.15   
   192. D(O  12,P   9,O   8,C   7)   -179.56 -0.000074    1.01   -178.55   
   193. D(O  11,P   9,O   8,C   7)    -73.70 -0.005728    1.63    -72.07   
   194. D(O  10,P   9,O   8,C   7)     56.77 -0.000914    1.07     57.84   
   195. D(H  41,O  11,P   9,O  12)     36.71  0.005844   -0.58     36.13   
   196. D(H  41,O  11,P   9,O  10)    158.06 -0.003315    0.63    158.70   
   197. D(H  41,O  11,P   9,O   8)    -71.70 -0.003377    0.41    -71.28   
   198. D(H  42,O  12,P   9,O  11)    147.53 -0.001281    0.48    148.01   
   199. D(H  42,O  12,P   9,O  10)     23.18  0.000417    0.06     23.24   
   200. D(H  42,O  12,P   9,O   8)   -102.98 -0.000704    0.33   -102.65   
   201. D(C  16,C  13,C   1,C   2)    -58.54 -0.000920    0.33    -58.21   
   202. D(C  16,C  13,C   1,O   0)    121.26 -0.001484    0.64    121.91   
   203. D(O  15,C  13,C   1,C   2)     64.98  0.003473   -0.81     64.17   
   204. D(O  15,C  13,C   1,O   0)   -115.21  0.002909   -0.50   -115.71   
   205. D(O  14,C  13,C   1,C   2)    178.80 -0.003648    1.14    179.94   
   206. D(O  14,C  13,C   1,O   0)     -1.39 -0.004212    1.45      0.06   
   207. D(H  43,O  14,C  13,C  16)   -142.10 -0.004070    1.74   -140.36   
   208. D(H  43,O  14,C  13,O  15)     98.75 -0.000979    0.56     99.31   
   209. D(H  43,O  14,C  13,C   1)    -18.55  0.000273    0.22    -18.32   
   210. D(H  44,O  15,C  13,C  16)     -4.13  0.003236   -1.10     -5.24   
   211. D(H  44,O  15,C  13,O  14)    115.54 -0.001280    0.30    115.84   
   212. D(H  44,O  15,C  13,C   1)   -128.96 -0.001354    0.49   -128.47   
   213. D(C  21,C  16,C  13,O  15)     72.68 -0.002917    0.46     73.14   
   214. D(C  21,C  16,C  13,C   1)   -163.85  0.001166   -0.80   -164.65   
   215. D(C  18,C  16,C  13,O  15)   -164.96 -0.003753    0.73   -164.23   
   216. D(C  18,C  16,C  13,O  14)     79.17  0.005386   -1.90     77.26   
   217. D(C  18,C  16,C  13,C   1)    -41.49  0.000331   -0.53    -42.02   
   218. D(O  17,C  16,C  13,O  15)    -45.05 -0.002028    0.10    -44.95   
   219. D(C  21,C  16,C  13,O  14)    -43.19  0.006221   -2.18    -45.37   
   220. D(O  17,C  16,C  13,O  14)   -160.92  0.007111   -2.54   -163.46   
   221. D(O  17,C  16,C  13,C   1)     78.42  0.002056   -1.16     77.26   
   222. D(H  45,O  17,C  16,C  21)     15.27  0.000921   -0.18     15.09   
   223. D(H  45,O  17,C  16,C  18)    -99.70  0.001939   -0.52   -100.22   
   224. D(H  45,O  17,C  16,C  13)    139.76 -0.002704    0.61    140.38   
   225. D(O  20,C  18,C  16,C  21)   -100.50 -0.000575    0.02   -100.47   
   226. D(O  20,C  18,C  16,O  17)     14.45 -0.001022    0.30     14.75   
   227. D(O  20,C  18,C  16,C  13)    131.38  0.002339   -0.62    130.76   
   228. D(O  19,C  18,C  16,C  21)     76.71 -0.000907    0.12     76.83   
   229. D(O  19,C  18,C  16,O  17)   -168.35 -0.001354    0.40   -167.94   
   230. D(O  19,C  18,C  16,C  13)    -51.42  0.002007   -0.52    -51.93   
   231. D(H  46,O  20,C  18,O  19)      2.87  0.000497   -0.34      2.53   
   232. D(H  46,O  20,C  18,C  16)   -179.71  0.000922   -0.33   -180.04   
   233. D(H  47,C  21,C  16,C  18)     52.00 -0.000440    0.02     52.02   
   234. D(H  47,C  21,C  16,C  13)    176.96  0.001082   -0.25    176.72   
   235. D(C  23,C  21,C  16,C  18)    -70.35 -0.000856    0.32    -70.04   
   236. D(C  23,C  21,C  16,O  17)    171.90  0.000334    0.14    172.04   
   237. D(C  23,C  21,C  16,C  13)     54.61  0.000666    0.04     54.66   
   238. D(O  22,C  21,C  16,C  18)    164.76 -0.001966    0.42    165.19   
   239. D(H  47,C  21,C  16,O  17)    -65.74  0.000751   -0.15    -65.90   
   240. D(O  22,C  21,C  16,O  17)     47.02 -0.000775    0.25     47.27   
   241. D(O  22,C  21,C  16,C  13)    -70.27 -0.000444    0.15    -70.12   
   242. D(H  48,O  22,C  21,H  47)   -140.97  0.000934   -0.25   -141.22   
   243. D(H  48,O  22,C  21,C  23)    -24.64  0.000534   -0.09    -24.73   
   244. D(H  48,O  22,C  21,C  16)    105.45 -0.001036    0.11    105.55   
   245. D(H  49,C  23,C  21,H  47)    -92.18 -0.001541    0.17    -92.00   
   246. D(H  49,C  23,C  21,C  16)     29.24  0.000616   -0.44     28.80   
   247. D(C  25,C  23,C  21,H  47)     29.07 -0.001139   -0.17     28.90   
   248. D(C  25,C  23,C  21,O  22)    -85.29  0.000286   -0.63    -85.92   
   249. D(C  25,C  23,C  21,C  16)    150.49  0.001017   -0.79    149.70   
   250. D(O  24,C  23,C  21,H  47)    148.55  0.003033   -1.17    147.38   
   251. D(H  49,C  23,C  21,O  22)    153.46 -0.000116   -0.29    153.18   
   252. D(O  24,C  23,C  21,O  22)     34.20  0.004458   -1.63     32.56   
   253. D(O  24,C  23,C  21,C  16)    -90.03  0.005189   -1.79    -91.81   
   254. D(H  50,O  24,C  23,H  49)    -43.15  0.000188   -0.43    -43.59   
   255. D(H  50,O  24,C  23,C  25)   -158.11  0.003278   -1.14   -159.25   
   256. D(H  50,O  24,C  23,C  21)     79.03 -0.000235   -0.15     78.88   
   257. D(H  51,C  25,C  23,H  49)     56.68  0.001346   -0.23     56.45   
   258. D(H  51,C  25,C  23,O  24)    172.07 -0.001978    0.90    172.98   
   259. D(H  51,C  25,C  23,C  21)    -67.57 -0.002178    0.62    -66.95   
   260. D(C  27,C  25,C  23,H  49)   -179.97  0.003604   -0.58   -180.55   
   261. D(C  27,C  25,C  23,O  24)    -64.58  0.000280    0.55    -64.03   
   262. D(C  27,C  25,C  23,C  21)     55.78  0.000079    0.27     56.04   
   263. D(O  26,C  25,C  23,H  49)    -58.05  0.000580   -0.42    -58.46   
   264. D(O  26,C  25,C  23,O  24)     57.35 -0.002744    0.71     58.06   
   265. D(O  26,C  25,C  23,C  21)    177.70 -0.002944    0.43    178.13   
   266. D(H  52,O  26,C  25,H  51)   -165.84 -0.000139    0.02   -165.83   
   267. D(H  52,O  26,C  25,C  27)     75.80  0.004671   -1.06     74.74   
   268. D(H  52,O  26,C  25,C  23)    -50.10 -0.003610    0.55    -49.56   
   269. D(H  54,C  27,C  25,C  23)    -67.66 -0.000830    0.94    -66.72   
   270. D(H  53,C  27,C  25,H  51)    173.68  0.000512    0.48    174.17   
   271. D(H  53,C  27,C  25,O  26)    -70.46 -0.004186    1.73    -68.73   
   272. D(H  53,C  27,C  25,C  23)     51.58  0.000866    0.55     52.13   
   273. D(O  28,C  27,C  25,H  51)    -67.56 -0.001449    1.01    -66.55   
   274. D(O  28,C  27,C  25,O  26)     48.30 -0.006148    2.26     50.56   
   275. D(H  54,C  27,C  25,O  26)    170.30 -0.005883    2.12    172.43   
   276. D(O  28,C  27,C  25,C  23)    170.34 -0.001095    1.08    171.41   
   277. D(H  54,C  27,C  25,H  51)     54.45 -0.001184    0.87     55.32   
   278. D(P  29,O  28,C  27,H  54)    -83.85 -0.003775    1.77    -82.08   
   279. D(P  29,O  28,C  27,H  53)    160.85 -0.002937    1.64    162.50   
   280. D(P  29,O  28,C  27,C  25)     39.71 -0.002563    1.44     41.15   
   281. D(O  32,P  29,O  28,C  27)    161.97  0.009473   -4.54    157.43   
   282. D(O  31,P  29,O  28,C  27)    -92.76  0.011225   -4.66    -97.42   
   283. D(O  30,P  29,O  28,C  27)     36.04  0.001007   -2.86     33.18   
   284. D(H  55,O  31,P  29,O  32)    159.30  0.004266   -0.49    158.81   
   285. D(H  55,O  31,P  29,O  30)    -75.62  0.002015   -0.54    -76.15   
   286. D(H  55,O  31,P  29,O  28)     53.34 -0.005817    0.77     54.12   
   287. D(H  56,O  32,P  29,O  31)     74.93  0.005814   -0.37     74.56   
   288. D(H  56,O  32,P  29,O  30)    -51.35  0.003641   -0.39    -51.74   
   289. D(H  56,O  32,P  29,O  28)   -178.59 -0.011082    1.66   -176.93   
    ----------------------------------------------------------------------------

         *************************************************************
         *                GEOMETRY OPTIMIZATION CYCLE   2            *
         *************************************************************
---------------------------------
CARTESIAN COORDINATES (ANGSTROEM)
---------------------------------
  O    -1.357099    0.508817   -3.613985
  C    -1.461638    0.208481   -2.442815
  C    -2.631159    0.634186   -1.602965
  C    -3.621836   -0.509156   -1.365759
  O    -4.427360   -0.672309   -2.521219
  C    -4.551806   -0.225815   -0.173519
  O    -5.171355    1.024888   -0.447447
  C    -3.796775   -0.217953    1.162161
  O    -4.635592   -0.556880    2.268551
  P    -5.540985    0.568084    2.946959
  O    -6.498202    1.258419    2.054951
  O    -4.533718    1.505197    3.742078
  O    -6.262666   -0.214229    4.130669
  C    -0.344792   -0.644994   -1.808025
  O     0.608933   -0.891908   -2.820588
  O    -0.863438   -1.895859   -1.415657
  C     0.297439    0.070206   -0.593359
  O    -0.640493   -0.096182    0.477818
  C     0.509180    1.547803   -0.890743
  O     1.072895    1.992614   -1.857910
  O     0.048270    2.351290    0.075674
  C     1.659546   -0.478160   -0.075456
  O     1.426999   -1.744012    0.533879
  C     2.826467   -0.606436   -1.067844
  O     2.822524   -1.913118   -1.642228
  C     4.191110   -0.424276   -0.389698
  O     5.196944   -0.604347   -1.382684
  C     4.428883   -1.389377    0.779693
  O     5.742429   -1.393509    1.318501
  P     6.540883   -0.018850    1.524024
  O     5.718144    1.162423    1.872362
  O     7.484086    0.123735    0.249193
  O     7.588551   -0.448657    2.641269
  H    -3.126240    1.452978   -2.132993
  H    -2.258851    1.044042   -0.662989
  H    -3.116035   -1.463738   -1.213472
  H    -5.029630    0.087949   -2.536065
  H    -5.342479   -0.986882   -0.149610
  H    -5.803491    1.227653    0.269856
  H    -3.326695    0.753006    1.340848
  H    -3.019372   -0.986374    1.151854
  H    -4.190934    1.047057    4.514815
  H    -7.170412   -0.419981    3.890926
  H     0.143070   -0.713289   -3.663439
  H    -0.614910   -2.039841   -0.488137
[...]
 83:    818.60   0.021366  107.97  0.008145  (-0.043619  0.033989  0.071325)
 84:    825.68   0.013521   68.33  0.005110  ( 0.064704  0.027968  0.011886)
 85:    842.88   0.039772  200.99  0.014725  ( 0.107013  0.021422 -0.053051)
 86:    876.04   0.033264  168.10  0.011849  (-0.050891  0.042323 -0.086419)
 87:    877.39   0.003104   15.68  0.001104  (-0.018901  0.011734  0.024677)
 88:    883.31   0.040359  203.96  0.014259  (-0.006788  0.043516 -0.110990)
 89:    903.39   0.005900   29.82  0.002038  (-0.023284  0.035983 -0.014187)
 90:    905.56   0.010139   51.24  0.003494  ( 0.014204 -0.031186 -0.048164)
 91:    909.44   0.079554  402.03  0.027298  ( 0.034299  0.013618 -0.161047)
 92:    911.62   0.085307  431.11  0.029202  (-0.074712 -0.152157 -0.021650)
 93:    929.27   0.007982   40.34  0.002680  (-0.034783  0.031615  0.021702)
 94:    941.33   0.029766  150.43  0.009868  (-0.089323 -0.042297  0.010017)
 95:    945.06   0.003493   17.65  0.001153  ( 0.022650  0.024665 -0.005645)
 96:    963.12   0.088205  445.75  0.028580  ( 0.160743  0.049498 -0.017067)
 97:    978.86   0.008052   40.69  0.002567  (-0.039963 -0.003197  0.030980)
 98:    987.36   0.009485   47.94  0.002998  ( 0.030364  0.039184 -0.023251)
 99:   1023.13   0.004361   22.04  0.001330  (-0.010973 -0.024412  0.024771)
100:   1032.29   0.007788   39.36  0.002354  ( 0.048444 -0.002149  0.001685)
101:   1044.17   0.013534   68.39  0.004045  (-0.037829  0.002048  0.051084)
102:   1054.59   0.012797   64.67  0.003787  ( 0.024113 -0.053541 -0.018404)
103:   1068.14   0.011583   58.54  0.003384  (-0.048503 -0.020969 -0.024326)
104:   1074.54   0.025594  129.34  0.007433  (-0.047677 -0.019077  0.069252)
105:   1083.93   0.009636   48.70  0.002774  ( 0.015490 -0.014551  0.048192)
106:   1085.80   0.026019  131.49  0.007478  ( 0.076198  0.031331 -0.026272)
107:   1101.60   0.013307   67.25  0.003770  ( 0.042377 -0.035506  0.026704)
108:   1106.30   0.056043  283.22  0.015809  (-0.095299 -0.074720 -0.033818)
109:   1114.03   0.014558   73.57  0.004078  (-0.062125 -0.002560  0.014561)
110:   1121.92   0.055750  281.74  0.015507  (-0.057768 -0.109912  0.009431)
111:   1127.19   0.025375  128.23  0.007025  ( 0.022516 -0.072422 -0.035680)
112:   1133.91   0.035336  178.57  0.009725  ( 0.078595 -0.058049  0.013337)
113:   1139.54   0.042909  216.84  0.011751  (-0.044636  0.019822  0.096775)
114:   1147.34   0.002025   10.23  0.000551  (-0.015244  0.001312 -0.017796)
115:   1175.16   0.030091  152.07  0.007991  (-0.073024  0.038890  0.033848)
116:   1184.99   0.030447  153.87  0.008018  (-0.063676 -0.012449  0.061714)
117:   1198.15   0.008451   42.71  0.002201  ( 0.015944  0.026689 -0.035137)
118:   1200.62   0.009401   47.51  0.002443  ( 0.034735 -0.014507  0.032039)
119:   1210.93   0.001822    9.21  0.000470  ( 0.015454 -0.014883  0.003047)
120:   1225.67   0.006365   32.17  0.001621  ( 0.031884  0.021570  0.011779)
121:   1231.28   0.005046   25.50  0.001279  ( 0.002888 -0.035643  0.000485)
122:   1235.20   0.010783   54.49  0.002724  (-0.022847 -0.045135  0.012850)
123:   1247.53   0.024973  126.20  0.006247  ( 0.077140 -0.001895 -0.017110)
124:   1248.11   0.120724  610.09  0.030185  (-0.086295  0.141914  0.050972)
125:   1251.81   0.011720   59.23  0.002922  (-0.019606 -0.042804  0.026553)
126:   1254.22   0.013479   68.12  0.003354  ( 0.016876  0.055368  0.001809)
127:   1265.62   0.077457  391.43  0.019098  (-0.059279  0.081103 -0.094904)
128:   1270.63   0.006457   32.63  0.001586  (-0.019457 -0.024919  0.024212)
129:   1283.57   0.007908   39.96  0.001923  (-0.004328 -0.038538  0.020460)
130:   1284.62   0.014007   70.79  0.003403  ( 0.044639  0.001236 -0.037530)
131:   1292.06   0.004834   24.43  0.001167  ( 0.022922  0.019257 -0.016469)
132:   1299.35   0.009621   48.62  0.002311  ( 0.046856 -0.010669 -0.001156)
133:   1316.16   0.002260   11.42  0.000536  (-0.020758 -0.007781  0.006663)
134:   1324.03   0.007990   40.38  0.001883  (-0.018616 -0.012068  0.037295)
135:   1332.38   0.020334  102.76  0.004763  ( 0.058192 -0.022895 -0.029189)
136:   1334.54   0.001633    8.25  0.000382  (-0.004236 -0.003571 -0.018740)
137:   1338.91   0.026966  136.27  0.006285  (-0.037988 -0.054074  0.043794)
138:   1342.71   0.007322   37.00  0.001702  (-0.009476 -0.002290  0.040083)
139:   1348.85   0.015322   77.43  0.003545  (-0.056987 -0.011676 -0.012684)
140:   1351.11   0.024993  126.30  0.005773  (-0.034263  0.055016  0.039646)
141:   1357.96   0.005316   26.87  0.001222  ( 0.020970  0.020189 -0.019349)
142:   1422.44   0.002318   11.71  0.000508  ( 0.001024  0.022430 -0.002072)
143:   1442.80   0.002852   14.41  0.000617  ( 0.023855  0.006420  0.002563)
144:   1444.88   0.002193   11.08  0.000474  ( 0.004463  0.021259  0.001359)
145:   1758.61   0.026115  131.97  0.004634  (-0.009251 -0.024129  0.062978)
146:   1793.94   0.095199  481.10  0.016560  ( 0.052281 -0.016074 -0.116485)
147:   2856.02   0.007346   37.13  0.000803  (-0.019275 -0.020727 -0.001248)
148:   2889.62   0.009446   47.74  0.001020  (-0.016219 -0.026107 -0.008687)
149:   2939.56   0.008586   43.39  0.000911  (-0.016387 -0.025354 -0.000295)
150:   2951.20   0.004383   22.15  0.000463  ( 0.013595 -0.016633 -0.001415)
151:   2959.15   0.004693   23.72  0.000495  (-0.015861 -0.015599  0.000166)
152:   2963.26   0.001306    6.60  0.000138  (-0.011536 -0.000838  0.001931)
153:   2970.62   0.000840    4.24  0.000088  ( 0.009380 -0.000460 -0.000203)
154:   2981.46   0.006047   30.56  0.000633  ( 0.001957 -0.025051 -0.001221)
155:   2985.22   0.003401   17.19  0.000356  ( 0.005692 -0.017969  0.000498)
156:   3006.62   0.008013   40.49  0.000832  ( 0.006908 -0.027975  0.001159)
157:   3053.88   0.001069    5.40  0.000109  ( 0.009395 -0.004581  0.000072)
158:   3238.74   0.029914  151.17  0.002882  ( 0.040777 -0.025482 -0.023879)
159:   3260.54   0.042456  214.55  0.004063  (-0.047730  0.022327 -0.035871)
160:   3298.21   0.040550  204.93  0.003837  ( 0.042941  0.013353  0.042597)
161:   3338.16   0.094786  479.01  0.008861  (-0.073378 -0.010067  0.058097)
162:   3340.90   0.057512  290.64  0.005372  ( 0.059427 -0.002431  0.042832)
163:   3428.46   0.045288  228.87  0.004122  (-0.036202 -0.003337 -0.052919)
164:   3428.98   0.010751   54.33  0.000978  ( 0.016056  0.024389 -0.011216)
165:   3483.17   0.008763   44.29  0.000785  (-0.011493  0.025017 -0.005212)
166:   3488.93   0.004166   21.05  0.000373  (-0.004520  0.017011  0.007928)
167:   3512.75   0.005501   27.80  0.000489  ( 0.002458  0.019858  0.009397)
168:   3599.11   0.010729   54.22  0.000930  (-0.009532  0.007366 -0.028021)
169:   3620.33   0.008869   44.82  0.000764  (-0.002773  0.000527 -0.027505)
170:   3635.23   0.006747   34.10  0.000579  (-0.019961 -0.002876 -0.013135)

* The epsilon (eps) is given for a Dirac delta lineshape.
** The dipole moment derivative (T) already includes vibrational overlap.

The first frequency considered to be a vibration is 6
The total number of vibrations considered is 165


--------------------------
THERMOCHEMISTRY AT 298.15K
--------------------------

Temperature         ... 298.15 K
Pressure            ... 1.00 atm
Total Mass          ... 534.25 AMU

Throughout the following assumptions are being made:
  (1) The electronic state is orbitally nondegenerate
  (2) There are no thermally accessible electronically excited states
  (3) Hindered rotations indicated by low frequency modes are not
      treated as such but are treated as vibrations and this may
      cause some error
  (4) All equations used are the standard statistical mechanics
      equations for an ideal gas
  (5) All vibrations are strictly harmonic

freq.       3.18  E(vib)   ...       0.59 
freq.      10.30  E(vib)   ...       0.58 
freq.      19.00  E(vib)   ...       0.57 
freq.      24.18  E(vib)   ...       0.56 
freq.      26.75  E(vib)   ...       0.56 
freq.      33.11  E(vib)   ...       0.55 
freq.      37.23  E(vib)   ...       0.54 
freq.      40.85  E(vib)   ...       0.54 
freq.      42.82  E(vib)   ...       0.53 
freq.      62.77  E(vib)   ...       0.51 
freq.      73.21  E(vib)   ...       0.49 
freq.      77.52  E(vib)   ...       0.49 
freq.      89.92  E(vib)   ...       0.47 
freq.     110.91  E(vib)   ...       0.45 
freq.     117.85  E(vib)   ...       0.44 
freq.     122.16  E(vib)   ...       0.43 
freq.     132.68  E(vib)   ...       0.42 
freq.     137.08  E(vib)   ...       0.42 
freq.     145.95  E(vib)   ...       0.41 
freq.     150.86  E(vib)   ...       0.40 
freq.     167.22  E(vib)   ...       0.39 
freq.     169.86  E(vib)   ...       0.38 
freq.     179.97  E(vib)   ...       0.37 
freq.     196.25  E(vib)   ...       0.36 
freq.     203.36  E(vib)   ...       0.35 
freq.     206.91  E(vib)   ...       0.35 
freq.     215.05  E(vib)   ...       0.34 
freq.     218.75  E(vib)   ...       0.33 
freq.     229.56  E(vib)   ...       0.32 
freq.     248.08  E(vib)   ...       0.31 
freq.     254.46  E(vib)   ...       0.30 
freq.     270.40  E(vib)   ...       0.29 
freq.     290.27  E(vib)   ...       0.27 
freq.     305.60  E(vib)   ...       0.26 
freq.     312.42  E(vib)   ...       0.25 
freq.     314.57  E(vib)   ...       0.25 
freq.     318.14  E(vib)   ...       0.25 
freq.     322.37  E(vib)   ...       0.25 
freq.     327.13  E(vib)   ...       0.24 
freq.     348.00  E(vib)   ...       0.23 
freq.     349.89  E(vib)   ...       0.23 
freq.     353.42  E(vib)   ...       0.22 
freq.     363.46  E(vib)   ...       0.22 
freq.     376.59  E(vib)   ...       0.21 
freq.     377.75  E(vib)   ...       0.21 
freq.     394.35  E(vib)   ...       0.20 
freq.     398.64  E(vib)   ...       0.19 
freq.     401.84  E(vib)   ...       0.19 
freq.     412.04  E(vib)   ...       0.19 
freq.     416.96  E(vib)   ...       0.18 
freq.     423.02  E(vib)   ...       0.18 
freq.     434.76  E(vib)   ...       0.17 
freq.     445.41  E(vib)   ...       0.17 
freq.     451.08  E(vib)   ...       0.16 
freq.     462.03  E(vib)   ...       0.16 
freq.     471.02  E(vib)   ...       0.15 
freq.     471.32  E(vib)   ...       0.15 
freq.     485.99  E(vib)   ...       0.15 
freq.     492.35  E(vib)   ...       0.14 
freq.     509.52  E(vib)   ...       0.14 
freq.     526.78  E(vib)   ...       0.13 
freq.     547.52  E(vib)   ...       0.12 
freq.     570.40  E(vib)   ...       0.11 
freq.     576.06  E(vib)   ...       0.11 
freq.     580.81  E(vib)   ...       0.11 
freq.     614.37  E(vib)   ...       0.10 
freq.     637.14  E(vib)   ...       0.09 
freq.     648.59  E(vib)   ...       0.08 
freq.     656.07  E(vib)   ...       0.08 
freq.     672.87  E(vib)   ...       0.08 
freq.     691.80  E(vib)   ...       0.07 
freq.     713.29  E(vib)   ...       0.07 
freq.     722.07  E(vib)   ...       0.07 
freq.     723.74  E(vib)   ...       0.06 
freq.     734.45  E(vib)   ...       0.06 
freq.     744.84  E(vib)   ...       0.06 
freq.     759.92  E(vib)   ...       0.06 
freq.     818.60  E(vib)   ...       0.05 
freq.     825.68  E(vib)   ...       0.04 
freq.     842.88  E(vib)   ...       0.04 
freq.     876.04  E(vib)   ...       0.04 
freq.     877.39  E(vib)   ...       0.04 
freq.     883.31  E(vib)   ...       0.04 
freq.     903.39  E(vib)   ...       0.03 
freq.     905.56  E(vib)   ...       0.03 
freq.     909.44  E(vib)   ...       0.03 
freq.     911.62  E(vib)   ...       0.03 
freq.     929.27  E(vib)   ...       0.03 
freq.     941.33  E(vib)   ...       0.03 
freq.     945.06  E(vib)   ...       0.03 
freq.     963.12  E(vib)   ...       0.03 
freq.     978.86  E(vib)   ...       0.03 
freq.     987.36  E(vib)   ...       0.02 
freq.    1023.13  E(vib)   ...       0.02 
freq.    1032.29  E(vib)   ...       0.02 
freq.    1044.17  E(vib)   ...       0.02 
freq.    1054.59  E(vib)   ...       0.02 
freq.    1068.14  E(vib)   ...       0.02 
freq.    1074.54  E(vib)   ...       0.02 
freq.    1083.93  E(vib)   ...       0.02 
freq.    1085.80  E(vib)   ...       0.02 
freq.    1101.60  E(vib)   ...       0.02 
freq.    1106.30  E(vib)   ...       0.02 
freq.    1114.03  E(vib)   ...       0.01 
freq.    1121.92  E(vib)   ...       0.01 
freq.    1127.19  E(vib)   ...       0.01 
freq.    1133.91  E(vib)   ...       0.01 
freq.    1139.54  E(vib)   ...       0.01 
freq.    1147.34  E(vib)   ...       0.01 
freq.    1175.16  E(vib)   ...       0.01 
freq.    1184.99  E(vib)   ...       0.01 
freq.    1198.15  E(vib)   ...       0.01 
freq.    1200.62  E(vib)   ...       0.01 
freq.    1210.93  E(vib)   ...       0.01 
freq.    1225.67  E(vib)   ...       0.01 
freq.    1231.28  E(vib)   ...       0.01 
freq.    1235.20  E(vib)   ...       0.01 
freq.    1247.53  E(vib)   ...       0.01 
freq.    1248.11  E(vib)   ...       0.01 
freq.    1251.81  E(vib)   ...       0.01 
freq.    1254.22  E(vib)   ...       0.01 
freq.    1265.62  E(vib)   ...       0.01 
freq.    1270.63  E(vib)   ...       0.01 
freq.    1283.57  E(vib)   ...       0.01 
freq.    1284.62  E(vib)   ...       0.01 
freq.    1292.06  E(vib)   ...       0.01 
freq.    1299.35  E(vib)   ...       0.01 
freq.    1316.16  E(vib)   ...       0.01 
freq.    1324.03  E(vib)   ...       0.01 
freq.    1332.38  E(vib)   ...       0.01 
freq.    1334.54  E(vib)   ...       0.01 
freq.    1338.91  E(vib)   ...       0.01 
freq.    1342.71  E(vib)   ...       0.01 
freq.    1348.85  E(vib)   ...       0.01 
freq.    1351.11  E(vib)   ...       0.01 
freq.    1357.96  E(vib)   ...       0.01 
freq.    1422.44  E(vib)   ...       0.00 
freq.    1442.80  E(vib)   ...       0.00 
freq.    1444.88  E(vib)   ...       0.00 
freq.    1758.61  E(vib)   ...       0.00 
freq.    1793.94  E(vib)   ...       0.00 
freq.    2856.02  E(vib)   ...       0.00 
freq.    2889.62  E(vib)   ...       0.00 
freq.    2939.56  E(vib)   ...       0.00 
freq.    2951.20  E(vib)   ...       0.00 
freq.    2959.15  E(vib)   ...       0.00 
freq.    2963.26  E(vib)   ...       0.00 
freq.    2970.62  E(vib)   ...       0.00 
freq.    2981.46  E(vib)   ...       0.00 
freq.    2985.22  E(vib)   ...       0.00 
freq.    3006.62  E(vib)   ...       0.00 
freq.    3053.88  E(vib)   ...       0.00 
freq.    3238.74  E(vib)   ...       0.00 
freq.    3260.54  E(vib)   ...       0.00 
freq.    3298.21  E(vib)   ...       0.00 
freq.    3338.16  E(vib)   ...       0.00 
freq.    3340.90  E(vib)   ...       0.00 
freq.    3428.46  E(vib)   ...       0.00 
freq.    3428.98  E(vib)   ...       0.00 
freq.    3483.17  E(vib)   ...       0.00 
freq.    3488.93  E(vib)   ...       0.00 
freq.    3512.75  E(vib)   ...       0.00 
freq.    3599.11  E(vib)   ...       0.00 
freq.    3620.33  E(vib)   ...       0.00 
freq.    3635.23  E(vib)   ...       0.00 

------------
INNER ENERGY
------------

The inner energy is: U= E(el) + E(ZPE) + E(vib) + E(rot) + E(trans)
    E(el)   - is the total energy from the electronic structure calculation
              = E(kin-el) + E(nuc-el) + E(el-el) + E(nuc-nuc)
    E(ZPE)  - the the zero temperature vibrational energy from the frequency calculation
    E(vib)  - the the finite temperature correction to E(ZPE) due to population
              of excited vibrational states
    E(rot)  - is the rotational thermal energy
    E(trans)- is the translational thermal energy

Summary of contributions to the inner energy U:
Electronic energy                ...   -120.55580135 Eh
Zero point energy                ...      0.40465985 Eh     253.93 kcal/mol
Thermal vibrational correction   ...      0.03527457 Eh      22.14 kcal/mol
Thermal rotational correction    ...      0.00141627 Eh       0.89 kcal/mol
Thermal translational correction ...      0.00141627 Eh       0.89 kcal/mol
-----------------------------------------------------------------------
Total thermal energy                   -120.11303439 Eh


Summary of corrections to the electronic energy:
(perhaps to be used in another calculation)
Total thermal correction                  0.03810711 Eh      23.91 kcal/mol
Non-thermal (ZPE) correction              0.40465985 Eh     253.93 kcal/mol
-----------------------------------------------------------------------
Total correction                          0.44276695 Eh     277.84 kcal/mol


--------
ENTHALPY
--------

The enthalpy is H = U + kB*T
                kB is Boltzmann's constant
Total free energy                 ...   -120.11303439 Eh 
Thermal Enthalpy correction       ...      0.00094421 Eh       0.59 kcal/mol
-----------------------------------------------------------------------
Total Enthalpy                    ...   -120.11209018 Eh


Note: Only C1 symmetry has been detected, increase convergence thresholds 
      if your molecule has a higher symmetry. Symmetry factor of 1.0 is   
      used for the rotational entropy correction. 
 

Note: Rotational entropy computed according to Herzberg 
Infrared and Raman Spectra, Chapter V,1, Van Nostrand Reinhold, 1945 
Point Group:  C1, Symmetry Number:   1  
Rotational constants in cm-1:     0.007153     0.001427     0.001296 

Vibrational entropy computed according to the QRRHO of S. Grimme
Chem.Eur.J. 2012 18 9955


-------
ENTROPY
-------

The entropy contributions are T*S = T*(S(el)+S(vib)+S(rot)+S(trans))
     S(el)   - electronic entropy
     S(vib)  - vibrational entropy
     S(rot)  - rotational entropy
     S(trans)- translational entropy
The entropies will be listed as multiplied by the temperature to get
units of energy

Electronic entropy                ...      0.00000000 Eh      0.00 kcal/mol
Vibrational entropy               ...      0.06489733 Eh     40.72 kcal/mol
Rotational entropy                ...      0.01807469 Eh     11.34 kcal/mol
Translational entropy             ...      0.02124449 Eh     13.33 kcal/mol
-----------------------------------------------------------------------
Final entropy term                ...      0.10421651 Eh     65.40 kcal/mol

In case the symmetry of your molecule has not been determined correctly
or in case you have a reason to use a different symmetry number we print 
out the resulting rotational entropy values for sn=1,12 :
 --------------------------------------------------------
|  sn= 1 | S(rot)=       0.01807469 Eh     11.34 kcal/mol|
|  sn= 2 | S(rot)=       0.01742023 Eh     10.93 kcal/mol|
|  sn= 3 | S(rot)=       0.01703740 Eh     10.69 kcal/mol|
|  sn= 4 | S(rot)=       0.01676578 Eh     10.52 kcal/mol|
|  sn= 5 | S(rot)=       0.01655509 Eh     10.39 kcal/mol|
|  sn= 6 | S(rot)=       0.01638294 Eh     10.28 kcal/mol|
|  sn= 7 | S(rot)=       0.01623740 Eh     10.19 kcal/mol|
|  sn= 8 | S(rot)=       0.01611132 Eh     10.11 kcal/mol|
|  sn= 9 | S(rot)=       0.01600011 Eh     10.04 kcal/mol|
|  sn=10 | S(rot)=       0.01590063 Eh      9.98 kcal/mol|
|  sn=11 | S(rot)=       0.01581064 Eh      9.92 kcal/mol|
|  sn=12 | S(rot)=       0.01572849 Eh      9.87 kcal/mol|
 --------------------------------------------------------


-------------------
GIBBS FREE ENERGY
-------------------

The Gibbs free energy is G = H - T*S

Total enthalpy                    ...   -120.11209018 Eh 
Total entropy correction          ...     -0.10421651 Eh    -65.40 kcal/mol
-----------------------------------------------------------------------
Final Gibbs free energy         ...   -120.21630670 Eh

For completeness - the Gibbs free energy minus the electronic energy
G-E(el)                           ...      0.33949465 Eh    213.04 kcal/mol



Timings for individual modules:

Sum of individual times         ...      880.254 sec (=  14.671 min)
Geometry relaxation             ...        5.041 sec (=   0.084 min)   0.6 %
Numerical frequency calculation ...      871.345 sec (=  14.522 min)  99.0 %
XTB module                      ...        3.868 sec (=   0.064 min)   0.4 %
                             ****ORCA TERMINATED NORMALLY****
TOTAL RUN TIME: 0 days 0 hours 14 minutes 43 seconds 938 msec
