
                                 *****************
                                 * O   R   C   A *
                                 *****************

                                            #,                                       
                                            ###                                      
                                            ####                                     
                                            #####                                    
                                            ######                                   
                                           ########,                                 
                                     ,,################,,,,,                         
                               ,,#################################,,                 
                          ,,##########################################,,             
                       ,#########################################, ''#####,          
                    ,#############################################,,   '####,        
                  ,##################################################,,,,####,       
                ,###########''''           ''''###############################       
              ,#####''   ,,,,##########,,,,          '''####'''          '####       
            ,##' ,,,,###########################,,,                        '##       
           ' ,,###''''                  '''############,,,                           
         ,,##''                                '''############,,,,        ,,,,,,###''
      ,#''                                            '''#######################'''  
     '                                                          ''''####''''         
             ,#######,   #######,   ,#######,      ##                                
            ,#'     '#,  ##    ##  ,#'     '#,    #''#        ######   ,####,        
            ##       ##  ##   ,#'  ##            #'  '#       #        #'  '#        
            ##       ##  #######   ##           ,######,      #####,   #    #        
            '#,     ,#'  ##    ##  '#,     ,#' ,#      #,         ##   #,  ,#        
             '#######'   ##     ##  '#######'  #'      '#     #####' # '####'        



                  #######################################################
                  #                        -***-                        #
                  #          Department of theory and spectroscopy      #
                  #    Directorship and core code : Frank Neese         #
                  #        Max Planck Institute fuer Kohlenforschung    #
                  #                Kaiser Wilhelm Platz 1               #
                  #                 D-45470 Muelheim/Ruhr               #
                  #                      Germany                        #
                  #                                                     #
                  #                  All rights reserved                #
                  #                        -***-                        #
                  #######################################################


                         Program Version 5.0.3 -  RELEASE  -


 With contributions from (in alphabetic order):
   Daniel Aravena         : Magnetic Suceptibility
   Michael Atanasov       : Ab Initio Ligand Field Theory (pilot matlab implementation)
   Alexander A. Auer      : GIAO ZORA, VPT2 properties, NMR spectrum
   Ute Becker             : Parallelization
   Giovanni Bistoni       : ED, misc. LED, open-shell LED, HFLD
   Martin Brehm           : Molecular dynamics
   Dmytro Bykov           : SCF Hessian
   Vijay G. Chilkuri      : MRCI spin determinant printing, contributions to CSF-ICE
   Dipayan Datta          : RHF DLPNO-CCSD density
   Achintya Kumar Dutta   : EOM-CC, STEOM-CC
   Dmitry Ganyushin       : Spin-Orbit,Spin-Spin,Magnetic field MRCI
   Miquel Garcia          : C-PCM and meta-GGA Hessian, CC/C-PCM, Gaussian charge scheme
   Yang Guo               : DLPNO-NEVPT2, F12-NEVPT2, CIM, IAO-localization
   Andreas Hansen         : Spin unrestricted coupled pair/coupled cluster methods
   Benjamin Helmich-Paris : MC-RPA, TRAH-SCF, COSX integrals
   Lee Huntington         : MR-EOM, pCC
   Robert Izsak           : Overlap fitted RIJCOSX, COSX-SCS-MP3, EOM
   Marcus Kettner         : VPT2
   Christian Kollmar      : KDIIS, OOCD, Brueckner-CCSD(T), CCSD density, CASPT2, CASPT2-K
   Simone Kossmann        : Meta GGA functionals, TD-DFT gradient, OOMP2, MP2 Hessian
   Martin Krupicka        : Initial AUTO-CI
   Lucas Lang             : DCDCAS
   Marvin Lechner         : AUTO-CI (C++ implementation), FIC-MRCC
   Dagmar Lenk            : GEPOL surface, SMD
   Dimitrios Liakos       : Extrapolation schemes; Compound Job, initial MDCI parallelization
   Dimitrios Manganas     : Further ROCIS development; embedding schemes
   Dimitrios Pantazis     : SARC Basis sets
   Anastasios Papadopoulos: AUTO-CI, single reference methods and gradients
   Taras Petrenko         : DFT Hessian,TD-DFT gradient, ASA, ECA, R-Raman, ABS, FL, XAS/XES, NRVS
   Peter Pinski           : DLPNO-MP2, DLPNO-MP2 Gradient
   Christoph Reimann      : Effective Core Potentials
   Marius Retegan         : Local ZFS, SOC
   Christoph Riplinger    : Optimizer, TS searches, QM/MM, DLPNO-CCSD(T), (RO)-DLPNO pert. Triples
   Tobias Risthaus        : Range-separated hybrids, TD-DFT gradient, RPA, STAB
   Michael Roemelt        : Original ROCIS implementation
   Masaaki Saitow         : Open-shell DLPNO-CCSD energy and density
   Barbara Sandhoefer     : DKH picture change effects
   Avijit Sen             : IP-ROCIS
   Kantharuban Sivalingam : CASSCF convergence, NEVPT2, FIC-MRCI
   Bernardo de Souza      : ESD, SOC TD-DFT
   Georgi Stoychev        : AutoAux, RI-MP2 NMR, DLPNO-MP2 response
   Willem Van den Heuvel  : Paramagnetic NMR
   Boris Wezisla          : Elementary symmetry handling
   Frank Wennmohs         : Technical directorship


 We gratefully acknowledge several colleagues who have allowed us to
 interface, adapt or use parts of their codes:
   Stefan Grimme, W. Hujo, H. Kruse, P. Pracht,  : VdW corrections, initial TS optimization,
                  C. Bannwarth, S. Ehlert          DFT functionals, gCP, sTDA/sTD-DF
   Ed Valeev, F. Pavosevic, A. Kumar             : LibInt (2-el integral package), F12 methods
   Garnet Chan, S. Sharma, J. Yang, R. Olivares  : DMRG
   Ulf Ekstrom                                   : XCFun DFT Library
   Mihaly Kallay                                 : mrcc  (arbitrary order and MRCC methods)
   Jiri Pittner, Ondrej Demel                    : Mk-CCSD
   Frank Weinhold                                : gennbo (NPA and NBO analysis)
   Christopher J. Cramer and Donald G. Truhlar   : smd solvation model
   Lars Goerigk                                  : TD-DFT with DH, B97 family of functionals
   V. Asgeirsson, H. Jonsson                     : NEB implementation
   FAccTs GmbH                                   : IRC, NEB, NEB-TS, DLPNO-Multilevel, CI-OPT
                                                   MM, QMMM, 2- and 3-layer-ONIOM, Crystal-QMMM,
                                                   LR-CPCM, SF, NACMEs, symmetry and pop. for TD-DFT,
                                                   nearIR, NL-DFT gradient (VV10), updates on ESD,
                                                   ML-optimized integration grids
   S Lehtola, MJT Oliveira, MAL Marques          : LibXC Library
   Liviu Ungur et al                             : ANISO software


 Your calculation uses the libint2 library for the computation of 2-el integrals
 For citations please refer to: http://libint.valeyev.net

 Your ORCA version has been built with support for libXC version: 5.1.0
 For citations please refer to: https://tddft.org/programs/libxc/

 This ORCA versions uses:
   CBLAS   interface :  Fast vector & matrix operations
   LAPACKE interface :  Fast linear algebra routines
   SCALAPACK package :  Parallel linear algebra routines
   Shared memory     :  Shared parallel matrices
   BLAS/LAPACK       :  OpenBLAS 0.3.15  USE64BITINT DYNAMIC_ARCH NO_AFFINITY Haswell SINGLE_THREADED
        Core in use  :  Haswell
   Copyright (c) 2011-2014, The OpenBLAS Project


Your calculation utilizes the semiempirical GFN2-xTB method
Please cite in your paper:
C. Bannwarth, Ehlert S., S. Grimme,  J. Chem. Theory Comput., 15, (2019), 1652.
   

================================================================================

================================================================================
                                        WARNINGS
                       Please study these warnings very carefully!
================================================================================


WARNING: Geometry Optimization
  ===> : Switching off AutoStart
         For restart on a previous wavefunction, please use MOREAD

WARNING: Found dipole moment calculation with XTB calculation
  ===> : Switching off dipole moment calculation


WARNING: TRAH-SCF for XTB is not implemented!
  ===> : Turning TRAH off!

================================================================================
                                       INPUT FILE
================================================================================
NAME = /tmp/27.inp
|  1> ! XTB2 opt numfreq
|  2> * XYZ 0 1
|  3> O 0.2146 2.3360 1.0893
|  4> C 0.6725 1.6360 0.2017
|  5> O 1.0582 2.1807 -0.9715
|  6> C 0.8873 0.1108 0.2426
|  7> O 1.6464 -0.3357 -0.8857
|  8> C 1.7073 -0.2206 1.5191
|  9> C 3.1548 0.3137 1.6050
| 10> O 3.1613 1.7393 1.5516
| 11> C 4.1161 -0.3016 0.5612
| 12> O 5.3357 -0.6833 1.2340
| 13> C 4.4995 0.6427 -0.5803
| 14> O 5.0541 -0.1446 -1.6345
| 15> P 4.5756 0.2054 -3.1200
| 16> O 3.1284 0.4923 -3.3319
| 17> O 5.5041 1.4218 -3.5706
| 18> O 5.1818 -0.9694 -4.0074
| 19> C -0.5206 -0.5921 0.2423
| 20> O -1.1836 -0.3972 1.5075
| 21> C -0.3120 -2.0997 0.0214
| 22> O -0.1734 -2.6797 -1.0436
| 23> O -0.3265 -2.7939 1.1844
| 24> C -1.4735 -0.0839 -0.8820
| 25> O -0.7968 0.0155 -2.1540
| 26> C -2.7804 -0.8848 -1.1344
| 27> O -3.5130 -0.1687 -2.1549
| 28> C -3.6978 -1.1187 0.0801
| 29> O -4.6837 -2.1080 -0.2738
| 30> C -4.4187 0.1429 0.5546
| 31> O -5.1647 -0.1942 1.7235
| 32> P -6.0374 0.9752 2.3751
| 33> O -6.9854 1.6949 1.4867
| 34> O -4.9747 1.9578 3.0432
| 35> O -6.6782 0.3080 3.6757
| 36> H 0.9034 3.1419 -0.8618
| 37> H 1.4471 0.2774 -1.6340
| 38> H 1.1673 0.1643 2.3932
| 39> H 1.7705 -1.3076 1.6367
| 40> H 3.5283 0.0489 2.6019
| 41> H 2.7198 2.0671 2.3573
| 42> H 3.7125 -1.2456 0.1800
| 43> H 5.9095 -1.0720 0.5461
| 44> H 3.6433 1.2138 -0.9448
| 45> H 5.2744 1.3490 -0.2637
| 46> H 5.0511 1.9352 -4.2668
| 47> H 6.1419 -1.0500 -3.8697
| 48> H -0.8751 -1.1164 2.0984
| 49> H -0.2055 -3.7283 0.9030
| 50> H -1.7752 0.9431 -0.6420
| 51> H -0.4733 -0.8799 -2.3951
| 52> H -2.5462 -1.8504 -1.5952
| 53> H -2.8564 0.0712 -2.8381
| 54> H -3.1522 -1.5759 0.9070
| 55> H -5.3961 -2.0325 0.3883
| 56> H -5.1210 0.5008 -0.2050
| 57> H -3.7106 0.9373 0.8026
| 58> H -5.3531 2.8549 3.0937
| 59> H -5.9821 -0.0433 4.2544
| 60> *
| 61> 
| 62>                          ****END OF INPUT****
================================================================================

                       *****************************
                       * Geometry Optimization Run *
                       *****************************

Geometry optimization settings:
Update method            Update   .... BFGS
Choice of coordinates    CoordSys .... Z-matrix Internals
Initial Hessian          InHess   .... Almoef's Model

Convergence Tolerances:
Energy Change            TolE     ....  5.0000e-06 Eh
Max. Gradient            TolMAXG  ....  3.0000e-04 Eh/bohr
RMS Gradient             TolRMSG  ....  1.0000e-04 Eh/bohr
Max. Displacement        TolMAXD  ....  4.0000e-03 bohr
RMS Displacement         TolRMSD  ....  2.0000e-03 bohr
Strict Convergence                ....  False
------------------------------------------------------------------------------
                        ORCA OPTIMIZATION COORDINATE SETUP
------------------------------------------------------------------------------

The optimization will be done in new redundant internal coordinates
Making redundant internal coordinates   ...  (new redundants) done
Evaluating the initial hessian          ...  (Almloef) done
Evaluating the coordinates              ...  done
Calculating the B-matrix                .... done
Calculating the G-matrix                .... done
Diagonalizing the G-matrix              .... done
Small eigenvalue found = 1.392e-03
Small eigenvalue found = 2.379e-03
Small eigenvalue found = 4.867e-03
Small eigenvalue found = 5.846e-03
Small eigenvalue found = 1.051e-02
Small eigenvalue found = 1.510e-02
Small eigenvalue found = 2.056e-02
Small eigenvalue found = 2.344e-02
Small eigenvalue found = 2.659e-02
The first mode is                       ....  127
The number of degrees of freedom        ....  165

    -----------------------------------------------------------------
                    Redundant Internal Coordinates


    -----------------------------------------------------------------
         Definition                    Initial Value    Approx d2E/dq
    -----------------------------------------------------------------
      1. B(C   1,O   0)                  1.2196         1.046367   
      2. B(O   2,C   1)                  1.3498         0.648740   
      3. B(C   3,C   1)                  1.5408         0.359051   
      4. B(O   4,C   3)                  1.4313         0.480799   
      5. B(C   5,C   3)                  1.5530         0.343360   
      6. B(C   6,C   5)                  1.5454         0.353090   
      7. B(O   7,C   6)                  1.4266         0.489169   
      8. B(C   8,C   6)                  1.5467         0.351374   
      9. B(O   9,C   8)                  1.4442         0.458529   
     10. B(C  10,C   8)                  1.5303         0.373207   
     11. B(O  11,C  10)                  1.4279         0.486952   
     12. B(P  12,O  11)                  1.5994         0.871443   
     13. B(O  13,P  12)                  1.4905         1.300236   
     14. B(O  14,P  12)                  1.5952         0.884966   
     15. B(O  15,P  12)                  1.5922         0.894883   
     16. B(C  16,C   3)                  1.5736         0.318273   
     17. B(O  17,C  16)                  1.4416         0.462923   
     18. B(C  18,C  16)                  1.5379         0.362875   
     19. B(O  19,C  18)                  1.2206         1.042705   
     20. B(O  20,C  18)                  1.3545         0.637529   
     21. B(C  21,C  16)                  1.5590         0.335880   
     22. B(O  22,C  21)                  1.4442         0.458524   
     23. B(C  23,C  21)                  1.5534         0.342769   
     24. B(O  24,C  23)                  1.4460         0.455541   
     25. B(C  25,C  23)                  1.5399         0.360211   
     26. B(O  26,C  25)                  1.4408         0.464299   
     27. B(C  27,C  25)                  1.5286         0.375563   
     28. B(O  28,C  27)                  1.4271         0.488383   
     29. B(P  29,O  28)                  1.5980         0.875949   
     30. B(O  30,P  29)                  1.4852         1.325641   
     31. B(O  31,P  29)                  1.5941         0.888633   
     32. B(O  32,P  29)                  1.5960         0.882363   
     33. B(H  33,O   2)                  0.9797         0.483574   
     34. B(H  34,O   4)                  0.9877         0.469637   
     35. B(H  35,C   5)                  1.0972         0.350729   
     36. B(H  36,C   5)                  1.0952         0.353328   
     37. B(H  37,C   6)                  1.0970         0.350945   
     38. B(H  38,O   7)                  0.9755         0.491244   
     39. B(H  39,C   8)                  1.0951         0.353358   
     40. B(H  40,O   9)                  0.9765         0.489386   
     41. B(H  41,C  10)                  1.0918         0.357687   
     42. B(H  42,C  10)                  1.0952         0.353226   
     43. B(H  43,O  14)                  0.9765         0.489439   
     44. B(H  44,O  15)                  0.9733         0.495221   
     45. B(H  45,O  17)                  0.9806         0.482053   
     46. B(H  46,O  20)                  0.9833         0.477256   
     47. B(H  47,C  21)                  1.0970         0.350991   
     48. B(H  48,O  13)                  3.9665         0.000008   
     49. B(H  48,O  22)                  0.9821         0.479409   
     50. B(H  49,C  23)                  1.0952         0.353223   
     51. B(H  50,O  24)                  0.9775         0.487644   
     52. B(H  51,C  25)                  1.0911         0.358663   
     53. B(H  52,O  26)                  0.9755         0.491185   
     54. B(H  53,C  27)                  1.0947         0.353970   
     55. B(H  54,C  27)                  1.0927         0.356553   
     56. B(H  55,O  31)                  0.9749         0.492172   
     57. B(H  56,O  32)                  0.9710         0.499345   
     58. A(O   0,C   1,O   2)          120.5459         0.475033   
     59. A(O   2,C   1,C   3)          112.5013         0.394543   
     60. A(O   0,C   1,C   3)          126.9527         0.429458   
     61. A(C   1,O   2,H  33)          104.6813         0.368389   
     62. A(C   5,C   3,C  16)          112.1638         0.348579   
     63. A(C   1,C   3,O   4)          111.2111         0.374512   
     64. A(C   1,C   3,C   5)          107.8587         0.355759   
     65. A(C   1,C   3,C  16)          108.5073         0.351217   
     66. A(O   4,C   3,C   5)          107.5390         0.371639   
     67. A(O   4,C   3,C  16)          109.5732         0.366827   
     68. A(C   3,O   4,H  34)          107.2518         0.348350   
     69. A(H  35,C   5,H  36)          106.9206         0.288778   
     70. A(C   3,C   5,H  36)          109.3018         0.318879   
     71. A(C   3,C   5,H  35)          108.6698         0.318496   
     72. A(C   3,C   5,C   6)          117.8073         0.354750   
     73. A(C   6,C   5,H  35)          107.1835         0.319952   
     74. A(C   6,C   5,H  36)          106.4480         0.320338   
     75. A(C   5,C   6,H  37)          106.6167         0.319984   
     76. A(O   7,C   6,H  37)          105.8831         0.335625   
     77. A(C   8,C   6,H  37)          107.7967         0.319729   
     78. A(C   5,C   6,C   8)          114.0236         0.356142   
     79. A(O   7,C   6,C   8)          111.6814         0.374231   
     80. A(C   5,C   6,O   7)          110.3460         0.374545   
     81. A(C   6,O   7,H  38)          107.6275         0.352030   
     82. A(O   9,C   8,C  10)          107.3987         0.373947   
     83. A(C   6,C   8,C  10)          114.4341         0.359513   
     84. A(C   6,C   8,O   9)          108.3976         0.370085   
     85. A(O   9,C   8,H  39)          104.2146         0.332418   
     86. A(C   6,C   8,H  39)          110.4121         0.320088   
     87. A(C  10,C   8,H  39)          111.3829         0.323262   
     88. A(C   8,O   9,H  40)          105.8576         0.347985   
     89. A(C   8,C  10,O  11)          107.9271         0.377852   
     90. A(C   8,C  10,H  42)          111.0742         0.323242   
     91. A(O  11,C  10,H  41)          110.2748         0.336435   
     92. A(C   8,C  10,H  41)          112.0447         0.323909   
     93. A(H  41,C  10,H  42)          108.3011         0.289655   
     94. A(O  11,C  10,H  42)          107.1090         0.335733   
     95. A(C  10,O  11,P  12)          116.6706         0.466136   
     96. A(O  11,P  12,O  15)          104.0210         0.559292   
     97. A(O  13,P  12,O  14)          112.2225         0.602577   
     98. A(O  14,P  12,O  15)          100.5789         0.560934   
     99. A(O  13,P  12,O  15)          115.6236         0.603874   
    100. A(O  11,P  12,O  14)          104.7781         0.558107   
    101. A(O  11,P  12,O  13)          117.6868         0.600790   
    102. A(P  12,O  14,H  43)          109.4075         0.415566   
    103. A(P  12,O  15,H  44)          110.9669         0.417262   
    104. A(C   3,C  16,C  21)          113.6658         0.347288   
    105. A(O  17,C  16,C  18)          108.7215         0.372754   
    106. A(C   3,C  16,C  18)          108.4543         0.351847   
    107. A(C   3,C  16,O  17)          110.5431         0.364455   
    108. A(C  18,C  16,C  21)          107.3905         0.355070   
    109. A(O  17,C  16,C  21)          107.9236         0.367832   
    110. A(C  16,O  17,H  45)          106.5591         0.347659   
    111. A(O  19,C  18,O  20)          120.4540         0.473208   
    112. A(C  16,C  18,O  20)          112.1869         0.394071   
    113. A(C  16,C  18,O  19)          127.3401         0.430004   
    114. A(C  18,O  20,H  46)          103.8855         0.366462   
    115. A(C  23,C  21,H  47)          106.6693         0.318445   
    116. A(O  22,C  21,H  47)          104.8995         0.332047   
    117. A(C  16,C  21,H  47)          108.3922         0.317393   
    118. A(O  22,C  21,C  23)          106.6532         0.368512   
    119. A(C  16,C  21,C  23)          117.6034         0.351659   
    120. A(C  16,C  21,O  22)          111.7910         0.367230   
    121. A(C  21,O  22,H  48)          107.9272         0.346779   
    122. A(C  25,C  23,H  49)          108.9836         0.321370   
    123. A(O  24,C  23,H  49)          104.3603         0.332037   
    124. A(C  21,C  23,H  49)          110.0599         0.318774   
    125. A(O  24,C  23,C  25)          109.2684         0.371252   
    126. A(C  21,C  23,C  25)          116.8315         0.355850   
    127. A(C  21,C  23,O  24)          106.5935         0.368099   
    128. A(C  23,O  24,H  50)          105.9318         0.347393   
    129. A(C  27,C  25,H  51)          110.2688         0.324388   
    130. A(C  23,C  25,H  51)          111.3127         0.322175   
    131. A(O  26,C  25,H  51)          103.9220         0.333932   
    132. A(O  26,C  25,C  27)          108.6775         0.375162   
    133. A(C  23,C  25,C  27)          113.6049         0.361426   
    134. A(C  23,C  25,O  26)          108.5554         0.372471   
    135. A(C  25,O  26,H  52)          106.2518         0.348934   
    136. A(O  28,C  27,H  54)          108.9409         0.336421   
    137. A(C  25,C  27,H  54)          111.3996         0.324074   
    138. A(O  28,C  27,H  53)          108.0731         0.336014   
    139. A(H  53,C  27,H  54)          109.6059         0.289607   
    140. A(C  25,C  27,H  53)          110.9171         0.323688   
    141. A(C  25,C  27,O  28)          107.8090         0.378456   
    142. A(C  27,O  28,P  29)          116.5266         0.466827   
    143. A(O  31,P  29,O  32)          100.5912         0.559872   
    144. A(O  30,P  29,O  32)          115.7046         0.604488   
    145. A(O  28,P  29,O  32)          104.2189         0.558342   
    146. A(O  30,P  29,O  31)          112.1795         0.605315   
    147. A(O  28,P  29,O  31)          104.9452         0.559095   
    148. A(O  28,P  29,O  30)          117.3401         0.603637   
    149. A(P  29,O  31,H  55)          109.2776         0.416284   
    150. A(P  29,O  32,H  56)          110.4307         0.416831   
    151. D(H  33,O   2,C   1,O   0)      1.8044         0.031094   
    152. D(H  33,O   2,C   1,C   3)   -178.0737         0.031094   
    153. D(C  16,C   3,C   1,O   2)   -111.0219         0.009698   
    154. D(O   4,C   3,C   1,O   2)      9.5663         0.009698   
    155. D(C  16,C   3,C   1,O   0)     69.1095         0.009698   
    156. D(C   5,C   3,C   1,O   0)    -52.6140         0.009698   
    157. D(C   5,C   3,C   1,O   2)    127.2546         0.009698   
    158. D(O   4,C   3,C   1,O   0)   -170.3023         0.009698   
    159. D(H  34,O   4,C   3,C   5)   -148.0159         0.018237   
    160. D(H  34,O   4,C   3,C  16)     89.8241         0.018237   
    161. D(H  34,O   4,C   3,C   1)    -30.1340         0.018237   
    162. D(C   6,C   5,C   3,O   4)     54.8404         0.009529   
    163. D(C   6,C   5,C   3,C  16)    175.3791         0.009529   
    164. D(C   6,C   5,C   3,C   1)    -65.1915         0.009529   
    165. D(H  35,C   5,C   3,C  16)    -62.5641         0.009529   
    166. D(H  36,C   5,C   3,C   1)    173.2152         0.009529   
    167. D(H  36,C   5,C   3,C  16)     53.7857         0.009529   
    168. D(H  35,C   5,C   3,O   4)    176.8973         0.009529   
    169. D(H  36,C   5,C   3,O   4)    -66.7530         0.009529   
    170. D(H  35,C   5,C   3,C   1)     56.8654         0.009529   
    171. D(H  37,C   6,C   5,H  36)    -61.5523         0.010031   
    172. D(H  37,C   6,C   5,H  35)     52.5858         0.010031   
    173. D(C   8,C   6,C   5,H  35)    171.4168         0.010031   
    174. D(C   8,C   6,C   5,C   3)    -65.7697         0.010031   
    175. D(H  37,C   6,C   5,C   3)    175.3994         0.010031   
    176. D(O   7,C   6,C   5,H  36)   -176.0888         0.010031   
    177. D(O   7,C   6,C   5,H  35)    -61.9506         0.010031   
    178. D(O   7,C   6,C   5,C   3)     60.8629         0.010031   
    179. D(C   8,C   6,C   5,H  36)     57.2787         0.010031   
    180. D(H  38,O   7,C   6,C   5)     65.7412         0.018893   
    181. D(H  38,O   7,C   6,C   8)   -166.3295         0.018893   
    182. D(H  38,O   7,C   6,H  37)    -49.2587         0.018893   
    183. D(H  39,C   8,C   6,H  37)     98.1902         0.009941   
    184. D(H  39,C   8,C   6,O   7)   -145.9014         0.009941   
    185. D(H  39,C   8,C   6,C   5)    -19.9676         0.009941   
    186. D(C  10,C   8,C   6,H  37)   -135.1992         0.009941   
    187. D(C  10,C   8,C   6,O   7)    -19.2908         0.009941   
    188. D(C  10,C   8,C   6,C   5)    106.6430         0.009941   
    189. D(O   9,C   8,C   6,H  37)    -15.3815         0.009941   
    190. D(O   9,C   8,C   6,O   7)    100.5270         0.009941   
    191. D(O   9,C   8,C   6,C   5)   -133.5393         0.009941   
    192. D(H  40,O   9,C   8,H  39)     61.9240         0.016562   
    193. D(H  40,O   9,C   8,C  10)    -56.3393         0.016562   
    194. D(H  40,O   9,C   8,C   6)    179.5319         0.016562   
    195. D(H  42,C  10,C   8,H  39)   -154.7918         0.011123   
    196. D(H  42,C  10,C   8,O   9)    -41.2732         0.011123   
    197. D(H  42,C  10,C   8,C   6)     79.1012         0.011123   
    198. D(H  41,C  10,C   8,H  39)     83.9361         0.011123   
    199. D(H  41,C  10,C   8,O   9)   -162.5454         0.011123   
    200. D(H  41,C  10,C   8,C   6)    -42.1710         0.011123   
    201. D(O  11,C  10,C   8,O   9)     75.8581         0.011123   
    202. D(O  11,C  10,C   8,H  39)    -37.6604         0.011123   
    203. D(O  11,C  10,C   8,C   6)   -163.7675         0.011123   
    204. D(P  12,O  11,C  10,H  42)   -104.0249         0.018718   
    205. D(P  12,O  11,C  10,H  41)     13.6181         0.018718   
    206. D(P  12,O  11,C  10,C   8)    136.3051         0.018718   
    207. D(O  14,P  12,O  11,C  10)     83.3330         0.013142   
    208. D(O  13,P  12,O  11,C  10)    -42.1275         0.013142   
    209. D(O  15,P  12,O  11,C  10)   -171.5034         0.013142   
    210. D(H  43,O  14,P  12,O  15)     96.5768         0.013534   
    211. D(H  43,O  14,P  12,O  13)    -26.8957         0.013534   
    212. D(H  43,O  14,P  12,O  11)   -155.7152         0.013534   
    213. D(H  44,O  15,P  12,O  11)    -54.0916         0.013826   
    214. D(H  44,O  15,P  12,O  14)     54.2145         0.013826   
    215. D(H  44,O  15,P  12,O  13)    175.2979         0.013826   
    216. D(C  21,C  16,C   3,C   5)    169.3773         0.008314   
    217. D(C  21,C  16,C   3,O   4)    -71.2694         0.008314   
    218. D(C  21,C  16,C   3,C   1)     50.3285         0.008314   
    219. D(C  18,C  16,C   3,C   5)    -71.2646         0.008314   
    220. D(C  18,C  16,C   3,O   4)     48.0887         0.008314   
    221. D(C  18,C  16,C   3,C   1)    169.6866         0.008314   
    222. D(O  17,C  16,C   3,C   5)     47.8397         0.008314   
    223. D(O  17,C  16,C   3,O   4)    167.1930         0.008314   
    224. D(O  17,C  16,C   3,C   1)    -71.2091         0.008314   
    225. D(H  45,O  17,C  16,C  21)    148.5774         0.016885   
    226. D(H  45,O  17,C  16,C  18)     32.3910         0.016885   
    227. D(H  45,O  17,C  16,C   3)    -86.5514         0.016885   
    228. D(O  20,C  18,C  16,C  21)   -139.0000         0.009889   
    229. D(O  20,C  18,C  16,O  17)    -22.4711         0.009889   
    230. D(O  20,C  18,C  16,C   3)     97.7736         0.009889   
    231. D(O  19,C  18,C  16,C  21)     39.4054         0.009889   
    232. D(O  19,C  18,C  16,O  17)    155.9343         0.009889   
    233. D(O  19,C  18,C  16,C   3)    -83.8210         0.009889   
    234. D(H  46,O  20,C  18,O  19)      0.2294         0.029945   
    235. D(H  46,O  20,C  18,C  16)    178.7588         0.029945   
    236. D(H  47,C  21,C  16,C  18)    170.1469         0.009155   
    237. D(H  47,C  21,C  16,O  17)     53.0947         0.009155   
    238. D(H  47,C  21,C  16,C   3)    -69.8908         0.009155   
    239. D(C  23,C  21,C  16,C  18)     49.1514         0.009155   
    240. D(C  23,C  21,C  16,O  17)    -67.9008         0.009155   
    241. D(C  23,C  21,C  16,C   3)    169.1137         0.009155   
    242. D(O  22,C  21,C  16,C  18)    -74.7184         0.009155   
    243. D(O  22,C  21,C  16,O  17)    168.2295         0.009155   
    244. D(O  22,C  21,C  16,C   3)     45.2439         0.009155   
    245. D(H  48,O  22,C  21,H  47)    177.7033         0.016562   
    246. D(H  48,O  22,C  21,C  23)    -69.3789         0.016562   
    247. D(H  48,O  22,C  21,C  16)     60.4456         0.016562   
    248. D(H  49,C  23,C  21,H  47)    167.3038         0.009499   
    249. D(H  49,C  23,C  21,O  22)     55.6054         0.009499   
    250. D(H  49,C  23,C  21,C  16)    -70.8105         0.009499   
    251. D(C  25,C  23,C  21,H  47)    -67.7510         0.009499   
    252. D(C  25,C  23,C  21,O  22)   -179.4494         0.009499   
    253. D(C  25,C  23,C  21,C  16)     54.1347         0.009499   
    254. D(O  24,C  23,C  21,H  47)     54.7022         0.009499   
    255. D(O  24,C  23,C  21,O  22)    -56.9963         0.009499   
    256. D(O  24,C  23,C  21,C  16)    176.5879         0.009499   
    257. D(H  50,O  24,C  23,H  49)    -71.9001         0.016345   
    258. D(H  50,O  24,C  23,C  25)    171.6630         0.016345   
    259. D(H  50,O  24,C  23,C  21)     44.5706         0.016345   
    260. D(H  51,C  25,C  23,H  49)     71.7600         0.010409   
    261. D(H  51,C  25,C  23,O  24)   -174.7802         0.010409   
    262. D(H  51,C  25,C  23,C  21)    -53.7258         0.010409   
    263. D(C  27,C  25,C  23,H  49)   -163.0495         0.010409   
    264. D(C  27,C  25,C  23,O  24)    -49.5897         0.010409   
    265. D(C  27,C  25,C  23,C  21)     71.4647         0.010409   
    266. D(O  26,C  25,C  23,H  49)    -42.0298         0.010409   
    267. D(O  26,C  25,C  23,O  24)     71.4299         0.010409   
    268. D(O  26,C  25,C  23,C  21)   -167.5157         0.010409   
    269. D(H  52,O  26,C  25,H  51)     78.6049         0.016986   
    270. D(H  52,O  26,C  25,C  27)    -38.8174         0.016986   
    271. D(H  52,O  26,C  25,C  23)   -162.8274         0.016986   
    272. D(H  53,C  27,C  25,H  51)   -168.9540         0.011256   
    273. D(H  53,C  27,C  25,O  26)    -55.6520         0.011256   
    274. D(H  53,C  27,C  25,C  23)     65.2992         0.011256   
    275. D(O  28,C  27,C  25,H  51)    -50.8150         0.011256   
    276. D(O  28,C  27,C  25,O  26)     62.4870         0.011256   
    277. D(O  28,C  27,C  25,C  23)   -176.5618         0.011256   
    278. D(H  54,C  27,C  25,H  51)     68.6613         0.011256   
    279. D(H  54,C  27,C  25,O  26)   -178.0367         0.011256   
    280. D(H  54,C  27,C  25,C  23)    -57.0855         0.011256   
    281. D(P  29,O  28,C  27,H  54)     60.5859         0.018831   
    282. D(P  29,O  28,C  27,H  53)    -58.4369         0.018831   
    283. D(P  29,O  28,C  27,C  25)   -178.3890         0.018831   
    284. D(O  32,P  29,O  28,C  27)   -177.3806         0.013272   
    285. D(O  31,P  29,O  28,C  27)    -72.0800         0.013272   
    286. D(O  30,P  29,O  28,C  27)     53.2206         0.013272   
    287. D(H  55,O  31,P  29,O  32)    -97.8008         0.013641   
    288. D(H  55,O  31,P  29,O  30)     25.7542         0.013641   
    289. D(H  55,O  31,P  29,O  28)    154.2278         0.013641   
    290. D(H  56,O  32,P  29,O  31)    -51.8632         0.013458   
    291. D(H  56,O  32,P  29,O  30)   -172.9435         0.013458   
    292. D(H  56,O  32,P  29,O  28)     56.6810         0.013458   
    -----------------------------------------------------------------

Number of atoms                         .... 57
Number of degrees of freedom            .... 292

         *************************************************************
         *                GEOMETRY OPTIMIZATION CYCLE   1            *
         *************************************************************
---------------------------------
CARTESIAN COORDINATES (ANGSTROEM)
---------------------------------
  O     0.214600    2.336000    1.089300
  C     0.672500    1.636000    0.201700
  O     1.058200    2.180700   -0.971500
  C     0.887300    0.110800    0.242600
  O     1.646400   -0.335700   -0.885700
  C     1.707300   -0.220600    1.519100
  C     3.154800    0.313700    1.605000
  O     3.161300    1.739300    1.551600
  C     4.116100   -0.301600    0.561200
  O     5.335700   -0.683300    1.234000
  C     4.499500    0.642700   -0.580300
  O     5.054100   -0.144600   -1.634500
  P     4.575600    0.205400   -3.120000
  O     3.128400    0.492300   -3.331900
  O     5.504100    1.421800   -3.570600
  O     5.181800   -0.969400   -4.007400
  C    -0.520600   -0.592100    0.242300
  O    -1.183600   -0.397200    1.507500
  C    -0.312000   -2.099700    0.021400
  O    -0.173400   -2.679700   -1.043600
  O    -0.326500   -2.793900    1.184400
  C    -1.473500   -0.083900   -0.882000
  O    -0.796800    0.015500   -2.154000
  C    -2.780400   -0.884800   -1.134400
  O    -3.513000   -0.168700   -2.154900
  C    -3.697800   -1.118700    0.080100
  O    -4.683700   -2.108000   -0.273800
  C    -4.418700    0.142900    0.554600
  O    -5.164700   -0.194200    1.723500
  P    -6.037400    0.975200    2.375100
  O    -6.985400    1.694900    1.486700
  O    -4.974700    1.957800    3.043200
  O    -6.678200    0.308000    3.675700
  H     0.903400    3.141900   -0.861800
  H     1.447100    0.277400   -1.634000
  H     1.167300    0.164300    2.393200
  H     1.770500   -1.307600    1.636700
  H     3.528300    0.048900    2.601900
  H     2.719800    2.067100    2.357300
  H     3.712500   -1.245600    0.180000
  H     5.909500   -1.072000    0.546100
  H     3.643300    1.213800   -0.944800
  H     5.274400    1.349000   -0.263700
  H     5.051100    1.935200   -4.266800
  H     6.141900   -1.050000   -3.869700
  H    -0.875100   -1.116400    2.098400
  H    -0.205500   -3.728300    0.903000
  H    -1.775200    0.943100   -0.642000
  H    -0.473300   -0.879900   -2.395100
  H    -2.546200   -1.850400   -1.595200
  H    -2.856400    0.071200   -2.838100
  H    -3.152200   -1.575900    0.907000
  H    -5.396100   -2.032500    0.388300
  H    -5.121000    0.500800   -0.205000
  H    -3.710600    0.937300    0.802600
  H    -5.353100    2.854900    3.093700
  H    -5.982100   -0.043300    4.254400

----------------------------
CARTESIAN COORDINATES (A.U.)
----------------------------
  NO LB    ZA    FRAG    MASS        X           Y           Z
   0 O   8.0000    0    15.999    0.405535    4.414400    2.058479
   1 C   6.0000    0    12.011    1.270841    3.091592    0.381158
   2 O   8.0000    0    15.999    1.999708    4.120926   -1.835869
   3 C   6.0000    0    12.011    1.676754    0.209382    0.458448
   4 O   8.0000    0    15.999    3.111245   -0.634381   -1.673730
   5 C   6.0000    0    12.011    3.226329   -0.416874    2.870683
   6 C   6.0000    0    12.011    5.961708    0.592807    3.033010
   7 O   8.0000    0    15.999    5.973991    3.286801    2.932099
   8 C   6.0000    0    12.011    7.778302   -0.569941    1.060514
   9 O   8.0000    0    15.999   10.083012   -1.291250    2.331922
  10 C   6.0000    0    12.011    8.502823    1.214527   -1.096608
  11 O   8.0000    0    15.999    9.550865   -0.273254   -3.088757
  12 P  15.0000    0    30.974    8.646631    0.388150   -5.895946
  13 O   8.0000    0    15.999    5.911819    0.930312   -6.296379
  14 O   8.0000    0    15.999   10.401242    2.686813   -6.747456
  15 O   8.0000    0    15.999    9.792183   -1.831901   -7.572889
  16 C   6.0000    0    12.011   -0.983791   -1.118907    0.457881
  17 O   8.0000    0    15.999   -2.236680   -0.750599    2.848762
  18 C   6.0000    0    12.011   -0.589595   -3.967858    0.040440
  19 O   8.0000    0    15.999   -0.327679   -5.063899   -1.972118
  20 O   8.0000    0    15.999   -0.616996   -5.279706    2.238192
  21 C   6.0000    0    12.011   -2.784511   -0.158548   -1.666738
  22 O   8.0000    0    15.999   -1.505734    0.029291   -4.070470
  23 C   6.0000    0    12.011   -5.254195   -1.672030   -2.143705
  24 O   8.0000    0    15.999   -6.638608   -0.318797   -4.072171
  25 C   6.0000    0    12.011   -6.987829   -2.114037    0.151367
  26 O   8.0000    0    15.999   -8.850910   -3.983543   -0.517407
  27 C   6.0000    0    12.011   -8.350133    0.270042    1.048042
  28 O   8.0000    0    15.999   -9.759869   -0.366985    3.256943
  29 P  15.0000    0    30.974  -11.409033    1.842861    4.488289
  30 O   8.0000    0    15.999  -13.200493    3.202897    2.809456
  31 O   8.0000    0    15.999   -9.400821    3.699706    5.750815
  32 O   8.0000    0    15.999  -12.619969    0.582036    6.946066
  33 H   1.0000    0     1.008    1.707179    5.937331   -1.628566
  34 H   1.0000    0     1.008    2.734623    0.524210   -3.087813
  35 H   1.0000    0     1.008    2.205877    0.310482    4.522493
  36 H   1.0000    0     1.008    3.345760   -2.471006    3.092915
  37 H   1.0000    0     1.008    6.667521    0.092408    4.916878
  38 H   1.0000    0     1.008    5.139677    3.906253    4.454651
  39 H   1.0000    0     1.008    7.015608   -2.353843    0.340151
  40 H   1.0000    0     1.008   11.167337   -2.025786    1.031979
  41 H   1.0000    0     1.008    6.884839    2.293750   -1.785413
  42 H   1.0000    0     1.008    9.967172    2.549241   -0.498321
  43 H   1.0000    0     1.008    9.545196    3.656998   -8.063083
  44 H   1.0000    0     1.008   11.606509   -1.984212   -7.312673
  45 H   1.0000    0     1.008   -1.653699   -2.109690    3.965401
  46 H   1.0000    0     1.008   -0.388339   -7.045466    1.706423
  47 H   1.0000    0     1.008   -3.354642    1.782201   -1.213204
  48 H   1.0000    0     1.008   -0.894407   -1.662770   -4.526083
  49 H   1.0000    0     1.008   -4.811621   -3.496749   -3.014491
  50 H   1.0000    0     1.008   -5.397814    0.134549   -5.363232
  51 H   1.0000    0     1.008   -5.956795   -2.978019    1.713982
  52 H   1.0000    0     1.008  -10.197151   -3.840868    0.733781
  53 H   1.0000    0     1.008   -9.677288    0.946375   -0.387394
  54 H   1.0000    0     1.008   -7.012018    1.771240    1.516694
  55 H   1.0000    0     1.008  -10.115893    5.394979    5.846246
  56 H   1.0000    0     1.008  -11.304531   -0.081825    8.039651

      -----------------------------------------------------------      
     |                   =====================                   |     
     |                           x T B                           |     
     |                   =====================                   |     
     |                         S. Grimme                         |     
     |          Mulliken Center for Theoretical Chemistry        |     
     |                    University of Bonn                     |     
      -----------------------------------------------------------      

   * xtb version 6.5.1 (579679a) compiled by 'ehlert@majestix' on 2022-07-11

   xtb is free software: you can redistribute it and/or modify it under
   the terms of the GNU Lesser General Public License as published by
   the Free Software Foundation, either version 3 of the License, or
   (at your option) any later version.
   
   xtb is distributed in the hope that it will be useful,
   but WITHOUT ANY WARRANTY; without even the implied warranty of
   MERCHANTABILITY or FITNESS FOR A PARTICULAR PURPOSE.  See the
   GNU Lesser General Public License for more details.
   
   Cite this work as:
   * C. Bannwarth, E. Caldeweyher, S. Ehlert, A. Hansen, P. Pracht,
     J. Seibert, S. Spicher, S. Grimme, WIREs Comput. Mol. Sci., 2020, 11,
     e01493. DOI: 10.1002/wcms.1493
   
   for GFN2-xTB:
   * C. Bannwarth, S. Ehlert and S. Grimme., J. Chem. Theory Comput., 2019,
     15, 1652-1671. DOI: 10.1021/acs.jctc.8b01176
   for GFN1-xTB:
   * S. Grimme, C. Bannwarth, P. Shushkov, J. Chem. Theory Comput., 2017,
     13, 1989-2009. DOI: 10.1021/acs.jctc.7b00118
   for GFN0-xTB:
   * P. Pracht, E. Caldeweyher, S. Ehlert, S. Grimme, ChemRxiv, 2019, preprint.
     DOI: 10.26434/chemrxiv.8326202.v1
   for GFN-FF:
   * S. Spicher and S. Grimme, Angew. Chem. Int. Ed., 2020, 59, 15665-15673.
     DOI: 10.1002/anie.202004239
   
   for ALPB and GBSA implicit solvation:
   * S. Ehlert, M. Stahn, S. Spicher, S. Grimme, J. Chem. Theory Comput.,
     2021, 17, 4250-4261. DOI: 10.1021/acs.jctc.1c00471
   
   for DFT-D4:
   * E. Caldeweyher, C. Bannwarth and S. Grimme, J. Chem. Phys., 2017,
     147, 034112. DOI: 10.1063/1.4993215
   * E. Caldeweyher, S. Ehlert, A. Hansen, H. Neugebauer, S. Spicher,
     C. Bannwarth and S. Grimme, J. Chem. Phys., 2019, 150, 154122.
     DOI: 10.1063/1.5090222
   * E. Caldeweyher, J.-M. Mewes, S. Ehlert and S. Grimme, Phys. Chem. Chem. Phys.
     2020, 22, 8499-8512. DOI: 10.1039/D0CP00502A
   
   for sTDA-xTB:
   * S. Grimme and C. Bannwarth, J. Chem. Phys., 2016, 145, 054103.
     DOI: 10.1063/1.4959605
   
   in the mass-spec context:
   * V. Asgeirsson, C. Bauer and S. Grimme, Chem. Sci., 2017, 8, 4879.
     DOI: 10.1039/c7sc00601b
   * J. Koopman and S. Grimme, ACS Omega 2019, 4, 12, 15120-15133.
     DOI: 10.1021/acsomega.9b02011
   
   for metadynamics refer to:
   * S. Grimme, J. Chem. Theory Comput., 2019, 155, 2847-2862
     DOI: 10.1021/acs.jctc.9b00143
   
   for SPH calculations refer to:
   * S. Spicher and S. Grimme, J. Chem. Theory Comput., 2021, 17, 1701-1714
     DOI: 10.1021/acs.jctc.0c01306
   
   with help from (in alphabetical order)
   P. Atkinson, C. Bannwarth, F. Bohle, G. Brandenburg, E. Caldeweyher
   M. Checinski, S. Dohm, S. Ehlert, S. Ehrlich, I. Gerasimov, C. Hölzer
   A. Katbashev, J. Koopman, C. Lavigne, S. Lehtola, F. März, M. Müller,
   F. Musil, H. Neugebauer, J. Pisarek, C. Plett, P. Pracht, F. Pultar,
   J. Seibert, P. Shushkov, S. Spicher, M. Stahn, M. Steiner, T. Strunk,
   J. Stückrath, T. Rose, and J. Unsleber
   
 * started run on 2023/12/06 at 23:06:21.157     

           -------------------------------------------------
          |                Calculation Setup                |
           -------------------------------------------------

          program call               : otool_xtb /tmp/27_XTB.xyz --grad -c 0 -u 0 -P 1 --namespace /tmp/27 --input /tmp/27_XTB.input.tmp --acc 1.000000
          calculation namespace      : /tmp/27
          coordinate file            : /tmp/27_XTB.xyz
          omp threads                :                     1

   ID    Z sym.   atoms
    1    8 O      1, 3, 5, 8, 10, 12, 14-16, 18, 20, 21, 23, 25, 27, 29, 31-33
    2    6 C      2, 4, 6, 7, 9, 11, 17, 19, 22, 24, 26, 28
    3   15 P      13, 30
    4    1 H      34-57

           -------------------------------------------------
          |                 G F N 2 - x T B                 |
           -------------------------------------------------

        Reference                      10.1021/acs.jctc.8b01176
      * Hamiltonian:
        H0-scaling (s, p, d)           1.850000    2.230000    2.230000
        zeta-weighting                 0.500000
      * Dispersion:
        s8                             2.700000
        a1                             0.520000
        a2                             5.000000
        s9                             5.000000
      * Repulsion:
        kExp                           1.500000    1.000000
        rExp                           1.000000
      * Coulomb:
        alpha                          2.000000
        third order                    shell-resolved
        anisotropic                    true
        a3                             3.000000
        a5                             4.000000
        cn-shift                       1.200000
        cn-exp                         4.000000
        max-rad                        5.000000


          ...................................................
          :                      SETUP                      :
          :.................................................:
          :  # basis functions                 168          :
          :  # atomic orbitals                 166          :
          :  # shells                           92          :
          :  # electrons                       196          :
          :  max. iterations                   250          :
          :  Hamiltonian                  GFN2-xTB          :
          :  restarted?                      false          :
          :  GBSA solvation                  false          :
          :  PC potential                    false          :
          :  electronic temp.          300.0000000     K    :
          :  accuracy                    1.0000000          :
          :  -> integral cutoff          0.2500000E+02      :
          :  -> integral neglect         0.1000000E-07      :
          :  -> SCF convergence          0.1000000E-05 Eh   :
          :  -> wf. convergence          0.1000000E-03 e    :
          :  Broyden damping             0.4000000          :
          ...................................................

 iter      E             dE          RMSdq      gap      omega  full diag
   1   -121.0650027 -0.121065E+03  0.648E+00    4.73       0.0  T
   2   -121.2328446 -0.167842E+00  0.363E+00    3.59       1.0  T
   3   -121.2494736 -0.166290E-01  0.124E+00    3.64       1.0  T
   4   -121.2704602 -0.209865E-01  0.505E-01    3.21       1.0  T
   5   -121.2723201 -0.185998E-02  0.190E-01    3.39       1.0  T
   6   -121.2726043 -0.284205E-03  0.685E-02    3.35       1.0  T
   7   -121.2726203 -0.159805E-04  0.266E-02    3.36       1.0  T
   8   -121.2726284 -0.808264E-05  0.104E-02    3.36       1.3  T
   9   -121.2726291 -0.713653E-06  0.425E-03    3.35       3.1  T
  10   -121.2726293 -0.169436E-06  0.132E-03    3.36      10.0  T
  11   -121.2726293 -0.191785E-07  0.623E-04    3.36      21.3  T
  12   -121.2726293 -0.154921E-08  0.159E-04    3.36      83.1  T

   *** convergence criteria satisfied after 12 iterations ***

         #    Occupation            Energy/Eh            Energy/eV
      -------------------------------------------------------------
         1        2.0000           -0.7834627             -21.3191
       ...           ...                  ...                  ...
        92        2.0000           -0.4347647             -11.8306
        93        2.0000           -0.4308328             -11.7236
        94        2.0000           -0.4294848             -11.6869
        95        2.0000           -0.4255224             -11.5791
        96        2.0000           -0.4219109             -11.4808
        97        2.0000           -0.4156487             -11.3104
        98        2.0000           -0.4107623             -11.1774 (HOMO)
        99                         -0.2874628              -7.8223 (LUMO)
       100                         -0.2599017              -7.0723
       101                         -0.0894429              -2.4339
       102                         -0.0857775              -2.3341
       103                         -0.0746828              -2.0322
       ...                                ...                  ...
       166                          1.1985475              32.6141
      -------------------------------------------------------------
                  HL-Gap            0.1232995 Eh            3.3551 eV
             Fermi-level           -0.3491126 Eh           -9.4998 eV

 SCC (total)                   0 d,  0 h,  0 min,  0.135 sec
 SCC setup                      ...        0 min,  0.000 sec (  0.335%)
 Dispersion                     ...        0 min,  0.001 sec (  0.563%)
 classical contributions        ...        0 min,  0.000 sec (  0.132%)
 integral evaluation            ...        0 min,  0.017 sec ( 12.628%)
 iterations                     ...        0 min,  0.058 sec ( 42.897%)
 molecular gradient             ...        0 min,  0.058 sec ( 42.941%)
 printout                       ...        0 min,  0.001 sec (  0.486%)

         :::::::::::::::::::::::::::::::::::::::::::::::::::::
         ::                     SUMMARY                     ::
         :::::::::::::::::::::::::::::::::::::::::::::::::::::
         :: total energy            -120.525141001234 Eh    ::
         :: gradient norm              0.138662032459 Eh/a0 ::
         :: HOMO-LUMO gap              3.355149423869 eV    ::
         ::.................................................::
         :: SCC energy              -121.272629312492 Eh    ::
         :: -> isotropic ES            0.476988857143 Eh    ::
         :: -> anisotropic ES         -0.013554973579 Eh    ::
         :: -> anisotropic XC         -0.013770712441 Eh    ::
         :: -> dispersion             -0.063856686136 Eh    ::
         :: repulsion energy           0.745850670441 Eh    ::
         :: add. restraining           0.000000000000 Eh    ::
         :: total charge              -0.000000000000 e     ::
         :::::::::::::::::::::::::::::::::::::::::::::::::::::


Property printout bound to 'properties.out'

           -------------------------------------------------
          | TOTAL ENERGY             -120.525141001234 Eh   |
          | GRADIENT NORM               0.138662032459 Eh/α |
          | HOMO-LUMO GAP               3.355149423869 eV   |
           -------------------------------------------------

------------------------------------------------------------------------
 * finished run on 2023/12/06 at 23:06:21.315     
------------------------------------------------------------------------
 total:
 * wall-time:     0 d,  0 h,  0 min,  0.159 sec
 *  cpu-time:     0 d,  0 h,  0 min,  0.156 sec
 * ratio c/w:     0.983 speedup
 SCF:
 * wall-time:     0 d,  0 h,  0 min,  0.135 sec
 *  cpu-time:     0 d,  0 h,  0 min,  0.136 sec
 * ratio c/w:     1.008 speedup


-------------------------   --------------------
FINAL SINGLE POINT ENERGY      -120.525141001230
-------------------------   --------------------

------------------------------------------------------------------------------
                         ORCA GEOMETRY RELAXATION STEP
------------------------------------------------------------------------------

Reading the OPT-File                    .... done
Getting information on internals        .... done
Copying old internal coords+grads       .... done
Making the new internal coordinates     .... (new redundants).... done
Validating the new internal coordinates .... (new redundants).... done
Calculating the B-matrix                .... done
Calculating the G,G- and P matrices     .... done
Transforming gradient to internals      .... done
Projecting the internal gradient        .... done
Number of atoms                         ....  57
Number of internal coordinates          .... 292
Current Energy                          ....  -120.525141001 Eh
Current gradient norm                   ....     0.138662032 Eh/bohr
Maximum allowed component of the step   ....  0.300
Current trust radius                    ....  0.300
Evaluating the initial hessian          ....  (Almloef) done
Projecting the Hessian                  .... done
Forming the augmented Hessian           .... done
Diagonalizing the augmented Hessian     .... done
Last element of RFO vector              ....  0.937163950
Lowest eigenvalues of augmented Hessian:
 -0.030099084  0.000645508  0.008371814  0.009283063  0.009499949
Length of the computed step             ....  0.372282014
Warning: the length of the step is outside the trust region - taking restricted step instead
The input lambda is                     ....    -0.030099
   iter:   1  x=   -0.046021  g=    3.052030 f(x)=     0.048594
   iter:   2  x=   -0.055211  g=    1.543550 f(x)=     0.014185
   iter:   3  x=   -0.056894  g=    1.152579 f(x)=     0.001939
   iter:   4  x=   -0.056935  g=    1.098529 f(x)=     0.000046
   iter:   5  x=   -0.056936  g=    1.097235 f(x)=     0.000000
   iter:   6  x=   -0.056936  g=    1.097235 f(x)=     0.000000
The output lambda is                    ....    -0.056936 (6 iterations)
The final length of the internal step   ....  0.300000000
Converting the step to cartesian space:
 Initial RMS(Int)=    0.0175561721
Transforming coordinates:
 Iter   0:  RMS(Cart)=    0.1375114653 RMS(Int)=    0.5189227149
 Iter   1:  RMS(Cart)=    0.0041968107 RMS(Int)=    0.0014088259
 Iter   2:  RMS(Cart)=    0.0002071826 RMS(Int)=    0.0000378951
 Iter   3:  RMS(Cart)=    0.0000113376 RMS(Int)=    0.0000041220
 Iter   4:  RMS(Cart)=    0.0000006531 RMS(Int)=    0.0000001525
 Iter   5:  RMS(Cart)=    0.0000000343 RMS(Int)=    0.0000000132
done
Storing new coordinates                 .... done

                                .--------------------.
          ----------------------|Geometry convergence|-------------------------
          Item                value                   Tolerance       Converged
          ---------------------------------------------------------------------
          RMS gradient        0.0068685814            0.0001000000      NO
          MAX gradient        0.0370059154            0.0003000000      NO
          RMS step            0.0175561721            0.0020000000      NO
          MAX step            0.0495177600            0.0040000000      NO
          ........................................................
          Max(Bonds)      0.0262      Max(Angles)    2.09
          Max(Dihed)        2.55      Max(Improp)    0.00
          ---------------------------------------------------------------------

The optimization has not yet converged - more geometry cycles are needed


    ---------------------------------------------------------------------------
                         Redundant Internal Coordinates
                            (Angstroem and degrees)

        Definition                    Value    dE/dq     Step     New-Value
    ----------------------------------------------------------------------------
     1. B(C   1,O   0)                1.2196  0.030911 -0.0148    1.2048   
     2. B(O   2,C   1)                1.3498  0.013108 -0.0098    1.3399   
     3. B(C   3,C   1)                1.5408  0.009334 -0.0119    1.5289   
     4. B(O   4,C   3)                1.4313  0.019742 -0.0194    1.4119   
     5. B(C   5,C   3)                1.5530  0.013065 -0.0173    1.5356   
     6. B(C   6,C   5)                1.5454  0.005277 -0.0071    1.5382   
     7. B(O   7,C   6)                1.4266  0.005704 -0.0055    1.4211   
     8. B(C   8,C   6)                1.5467  0.012802 -0.0168    1.5299   
     9. B(O   9,C   8)                1.4442  0.010260 -0.0105    1.4337   
    10. B(C  10,C   8)                1.5303  0.003774 -0.0048    1.5254   
    11. B(O  11,C  10)                1.4279  0.001450 -0.0015    1.4264   
    12. B(P  12,O  11)                1.5994  0.007489 -0.0043    1.5952   
    13. B(O  13,P  12)                1.4905  0.037006 -0.0144    1.4762   
    14. B(O  14,P  12)                1.5952 -0.010510  0.0059    1.6011   
    15. B(O  15,P  12)                1.5922  0.003078 -0.0017    1.5905   
    16. B(C  16,C   3)                1.5736  0.004566 -0.0068    1.5668   
    17. B(O  17,C  16)                1.4416  0.022236 -0.0226    1.4190   
    18. B(C  18,C  16)                1.5379  0.008376 -0.0106    1.5274   
    19. B(O  19,C  18)                1.2206  0.034830 -0.0168    1.2038   
    20. B(O  20,C  18)                1.3545  0.009026 -0.0069    1.3476   
    21. B(C  21,C  16)                1.5590  0.011520 -0.0156    1.5433   
    22. B(O  22,C  21)                1.4442  0.025689 -0.0262    1.4180   
    23. B(C  23,C  21)                1.5534  0.008086 -0.0107    1.5427   
    24. B(O  24,C  23)                1.4460  0.020118 -0.0208    1.4252   
    25. B(C  25,C  23)                1.5399  0.012471 -0.0158    1.5241   
    26. B(O  26,C  25)                1.4408  0.013210 -0.0134    1.4274   
    27. B(C  27,C  25)                1.5286  0.005296 -0.0065    1.5221   
    28. B(O  28,C  27)                1.4271  0.000511 -0.0005    1.4266   
    29. B(P  29,O  28)                1.5980  0.006738 -0.0038    1.5942   
    30. B(O  30,P  29)                1.4852  0.032360 -0.0124    1.4729   
    31. B(O  31,P  29)                1.5941 -0.010358  0.0058    1.5999   
    32. B(O  32,P  29)                1.5960  0.004695 -0.0026    1.5934   
    33. B(H  33,O   2)                0.9797  0.006929 -0.0068    0.9730   
    34. B(H  34,O   4)                0.9877  0.012505 -0.0126    0.9751   
    35. B(H  35,C   5)                1.0972  0.002154 -0.0028    1.0944   
    36. B(H  36,C   5)                1.0952  0.001397 -0.0018    1.0934   
    37. B(H  37,C   6)                1.0970 -0.001458  0.0019    1.0989   
    38. B(H  38,O   7)                0.9755  0.010013 -0.0097    0.9658   
    39. B(H  39,C   8)                1.0951  0.000271 -0.0003    1.0948   
    40. B(H  40,O   9)                0.9765  0.010917 -0.0106    0.9659   
    41. B(H  41,C  10)                1.0918  0.001176 -0.0015    1.0903   
    42. B(H  42,C  10)                1.0952  0.001272 -0.0016    1.0936   
    43. B(H  43,O  14)                0.9765  0.017169 -0.0166    0.9598   
    44. B(H  44,O  15)                0.9733  0.013047 -0.0125    0.9608   
    45. B(H  45,O  17)                0.9806  0.011937 -0.0117    0.9689   
    46. B(H  46,O  20)                0.9833  0.007986 -0.0079    0.9754   
    47. B(H  47,C  21)                1.0970  0.001100 -0.0014    1.0955   
    48. B(H  48,O  13)                3.9665  0.001542 -0.0120    3.9544   
    49. B(H  48,O  22)                0.9821  0.009441 -0.0093    0.9728   
    50. B(H  49,C  23)                1.0952 -0.002818  0.0036    1.0989   
    51. B(H  50,O  24)                0.9775  0.007978 -0.0078    0.9697   
    52. B(H  51,C  25)                1.0911 -0.004020  0.0051    1.0962   
    53. B(H  52,O  26)                0.9755  0.009510 -0.0092    0.9663   
    54. B(H  53,C  27)                1.0947  0.000846 -0.0011    1.0936   
    55. B(H  54,C  27)                1.0927  0.000402 -0.0005    1.0922   
    56. B(H  55,O  31)                0.9749  0.016074 -0.0155    0.9595   
    57. B(H  56,O  32)                0.9710  0.011217 -0.0107    0.9603   
    58. A(O   0,C   1,O   2)          120.55 -0.009096    1.01    121.55   
    59. A(O   2,C   1,C   3)          112.50 -0.000759    0.13    112.63   
    60. A(O   0,C   1,C   3)          126.95  0.009855   -1.13    125.82   
    61. A(C   1,O   2,H  33)          104.68 -0.013293    1.79    106.47   
    62. A(C   5,C   3,C  16)          112.16  0.004557   -1.24    110.93   
    63. A(C   1,C   3,O   4)          111.21 -0.001467    0.86    112.07   
    64. A(C   1,C   3,C   5)          107.86  0.000321   -0.24    107.61   
    65. A(C   1,C   3,C  16)          108.51 -0.000822   -0.03    108.48   
    66. A(O   4,C   3,C   5)          107.54 -0.002072    0.50    108.04   
    67. A(O   4,C   3,C  16)          109.57 -0.000496    0.16    109.73   
    68. A(C   3,O   4,H  34)          107.25 -0.011475    1.62    108.87   
    69. A(H  35,C   5,H  36)          106.92  0.000210    0.62    107.54   
    70. A(C   3,C   5,H  36)          109.30 -0.000652    0.08    109.38   
    71. A(C   3,C   5,H  35)          108.67 -0.001955   -0.04    108.63   
    72. A(C   3,C   5,C   6)          117.81  0.011447   -2.07    115.74   
    73. A(C   6,C   5,H  35)          107.18 -0.003016    0.31    107.49   
    74. A(C   6,C   5,H  36)          106.45 -0.006921    1.35    107.79   
    75. A(C   5,C   6,H  37)          106.62  0.002720   -0.04    106.58   
    76. A(O   7,C   6,H  37)          105.88 -0.005786    1.66    107.54   
    77. A(C   8,C   6,H  37)          107.80  0.000904   -0.23    107.57   
    78. A(C   5,C   6,C   8)          114.02 -0.004678    0.19    114.21   
    79. A(O   7,C   6,C   8)          111.68  0.009922   -1.93    109.75   
    80. A(C   5,C   6,O   7)          110.35 -0.003453    0.55    110.90   
    81. A(C   6,O   7,H  38)          107.63 -0.002455    0.34    107.97   
    82. A(O   9,C   8,C  10)          107.40 -0.006386    1.24    108.64   
    83. A(C   6,C   8,C  10)          114.43  0.005514   -1.42    113.01   
    84. A(C   6,C   8,O   9)          108.40  0.004258   -0.77    107.63   
    85. A(O   9,C   8,H  39)          104.21 -0.003370    1.60    105.81   
    86. A(C   6,C   8,H  39)          110.41 -0.002178    0.04    110.45   
    87. A(C  10,C   8,H  39)          111.38  0.001294   -0.38    111.01   
    88. A(C   8,O   9,H  40)          105.86 -0.002115    0.30    106.16   
    89. A(C   8,C  10,O  11)          107.93 -0.003956    0.54    108.47   
    90. A(C   8,C  10,H  42)          111.07  0.006254   -1.04    110.03   
    91. A(O  11,C  10,H  41)          110.27  0.001559   -0.19    110.09   
    92. A(C   8,C  10,H  41)          112.04  0.001407   -0.39    111.66   
    93. A(H  41,C  10,H  42)          108.30 -0.002819    0.43    108.73   
    94. A(O  11,C  10,H  42)          107.11 -0.002555    0.69    107.80   
    95. A(C  10,O  11,P  12)          116.67  0.002455   -0.31    116.36   
    96. A(O  11,P  12,O  15)          104.02  0.008598   -1.10    102.92   
    97. A(O  13,P  12,O  14)          112.22 -0.000031    0.26    112.49   
    98. A(O  14,P  12,O  15)          100.58 -0.015317    1.98    102.56   
    99. A(O  13,P  12,O  15)          115.62  0.000612    0.07    115.69   
   100. A(O  11,P  12,O  14)          104.78  0.007626   -0.90    103.88   
   101. A(O  11,P  12,O  13)          117.69 -0.002450   -0.14    117.55   
   102. A(P  12,O  14,H  43)          109.41  0.000927   -0.11    109.30   
   103. A(P  12,O  15,H  44)          110.97 -0.000824    0.10    111.07   
   104. A(C   3,C  16,C  21)          113.67  0.001723   -0.96    112.71   
   105. A(O  17,C  16,C  18)          108.72 -0.004448    1.59    110.31   
   106. A(C   3,C  16,C  18)          108.45  0.001852   -0.36    108.10   
   107. A(C   3,C  16,O  17)          110.54  0.000211   -0.12    110.42   
   108. A(C  18,C  16,C  21)          107.39 -0.001237    0.31    107.70   
   109. A(O  17,C  16,C  21)          107.92  0.001523   -0.32    107.61   
   110. A(C  16,O  17,H  45)          106.56 -0.004751    0.67    107.23   
   111. A(O  19,C  18,O  20)          120.45 -0.005535    0.60    121.06   
   112. A(C  16,C  18,O  20)          112.19 -0.005857    0.75    112.94   
   113. A(C  16,C  18,O  19)          127.34  0.011371   -1.33    126.01   
   114. A(C  18,O  20,H  46)          103.89 -0.013977    1.89    105.78   
   115. A(C  23,C  21,H  47)          106.67 -0.002657    0.68    107.35   
   116. A(O  22,C  21,H  47)          104.90 -0.000174    0.43    105.33   
   117. A(C  16,C  21,H  47)          108.39 -0.000939    0.12    108.51   
   118. A(O  22,C  21,C  23)          106.65 -0.003535    0.50    107.15   
   119. A(C  16,C  21,C  23)          117.60  0.005949   -1.15    116.45   
   120. A(C  16,C  21,O  22)          111.79  0.000614   -0.36    111.43   
   121. A(C  21,O  22,H  48)          107.93  0.002547   -0.32    107.61   
   122. A(C  25,C  23,H  49)          108.98  0.001276   -0.36    108.63   
   123. A(O  24,C  23,H  49)          104.36 -0.004635    1.68    106.04   
   124. A(C  21,C  23,H  49)          110.06  0.000052    0.04    110.10   
   125. A(O  24,C  23,C  25)          109.27  0.002336   -0.56    108.71   
   126. A(C  21,C  23,C  25)          116.83  0.000731   -0.55    116.28   
   127. A(C  21,C  23,O  24)          106.59 -0.000425    0.02    106.61   
   128. A(C  23,O  24,H  50)          105.93 -0.000590    0.08    106.02   
   129. A(C  27,C  25,H  51)          110.27  0.001330   -0.29    109.98   
   130. A(C  23,C  25,H  51)          111.31 -0.000093   -0.35    110.96   
   131. A(O  26,C  25,H  51)          103.92 -0.003800    1.50    105.42   
   132. A(O  26,C  25,C  27)          108.68 -0.005018    1.01    109.68   
   133. A(C  23,C  25,C  27)          113.60  0.002496   -0.82    112.79   
   134. A(C  23,C  25,O  26)          108.56  0.004426   -0.82    107.74   
   135. A(C  25,O  26,H  52)          106.25 -0.001008    0.14    106.39   
   136. A(O  28,C  27,H  54)          108.94 -0.002210    0.34    109.28   
   137. A(C  25,C  27,H  54)          111.40  0.000356   -0.21    111.19   
   138. A(O  28,C  27,H  53)          108.07 -0.004010    0.76    108.83   
   139. A(H  53,C  27,H  54)          109.61 -0.000461    0.14    109.74   
   140. A(C  25,C  27,H  53)          110.92  0.001829   -0.39    110.53   
   141. A(C  25,C  27,O  28)          107.81  0.004341   -0.60    107.21   
   142. A(C  27,O  28,P  29)          116.53  0.003755   -0.41    116.12   
   143. A(O  31,P  29,O  32)          100.59 -0.015919    2.09    102.68   
   144. A(O  30,P  29,O  32)          115.70  0.001235   -0.07    115.64   
   145. A(O  28,P  29,O  32)          104.22  0.010636   -1.46    102.76   
   146. A(O  30,P  29,O  31)          112.18 -0.002269    0.64    112.82   
   147. A(O  28,P  29,O  31)          104.95  0.006909   -0.76    104.19   
   148. A(O  28,P  29,O  30)          117.34 -0.001635   -0.25    117.09   
   149. A(P  29,O  31,H  55)          109.28  0.001106   -0.13    109.14   
   150. A(P  29,O  32,H  56)          110.43 -0.000984    0.12    110.55   
   151. D(H  33,O   2,C   1,O   0)      1.80  0.000341   -0.20      1.60   
   152. D(H  33,O   2,C   1,C   3)   -178.07  0.000538   -0.37   -178.45   
   153. D(C  16,C   3,C   1,O   2)   -111.02  0.002410   -0.79   -111.81   
   154. D(O   4,C   3,C   1,O   2)      9.57  0.000355   -0.08      9.49   
   155. D(C  16,C   3,C   1,O   0)     69.11  0.002651   -0.98     68.13   
   156. D(C   5,C   3,C   1,O   0)    -52.61 -0.002556    0.68    -51.94   
   157. D(C   5,C   3,C   1,O   2)    127.25 -0.002797    0.86    128.12   
   158. D(O   4,C   3,C   1,O   0)   -170.30  0.000596   -0.27   -170.57   
   159. D(H  34,O   4,C   3,C   5)   -148.02  0.002345   -0.88   -148.89   
   160. D(H  34,O   4,C   3,C  16)     89.82 -0.001627    0.23     90.05   
   161. D(H  34,O   4,C   3,C   1)    -30.13  0.000652   -0.39    -30.52   
   162. D(C   6,C   5,C   3,O   4)     54.84 -0.004167    2.29     57.13   
   163. D(C   6,C   5,C   3,C  16)    175.38 -0.003380    2.06    177.44   
   164. D(C   6,C   5,C   3,C   1)    -65.19 -0.001453    1.13    -64.06   
   165. D(H  35,C   5,C   3,C  16)    -62.56 -0.000723    0.94    -61.62   
   166. D(H  36,C   5,C   3,C   1)    173.22  0.000005    0.77    173.98   
   167. D(H  36,C   5,C   3,C  16)     53.79 -0.001922    1.70     55.49   
   168. D(H  35,C   5,C   3,O   4)    176.90 -0.001509    1.17    178.07   
   169. D(H  36,C   5,C   3,O   4)    -66.75 -0.002708    1.93    -64.83   
   170. D(H  35,C   5,C   3,C   1)     56.87  0.001204    0.01     56.87   
   171. D(H  37,C   6,C   5,H  36)    -61.55 -0.001434    1.05    -60.50   
   172. D(H  37,C   6,C   5,H  35)     52.59 -0.005848    2.53     55.12   
   173. D(C   8,C   6,C   5,H  35)    171.42 -0.005637    2.33    173.75   
   174. D(C   8,C   6,C   5,C   3)    -65.77 -0.002633    1.07    -64.70   
   175. D(H  37,C   6,C   5,C   3)    175.40 -0.002845    1.27    176.67   
   176. D(O   7,C   6,C   5,H  36)   -176.09  0.005613   -1.15   -177.24   
   177. D(O   7,C   6,C   5,H  35)    -61.95  0.001198    0.33    -61.62   
   178. D(O   7,C   6,C   5,C   3)     60.86  0.004202   -0.93     59.93   
   179. D(C   8,C   6,C   5,H  36)     57.28 -0.001222    0.85     58.13   
   180. D(H  38,O   7,C   6,C   5)     65.74  0.000675    0.03     65.77   
   181. D(H  38,O   7,C   6,C   8)   -166.33 -0.000542   -0.79   -167.11   
   182. D(H  38,O   7,C   6,H  37)    -49.26  0.002302   -1.09    -50.34   
   183. D(H  39,C   8,C   6,H  37)     98.19 -0.002983    1.75     99.94   
   184. D(H  39,C   8,C   6,O   7)   -145.90 -0.003978    2.55   -143.35   
   185. D(H  39,C   8,C   6,C   5)    -19.97 -0.004175    1.84    -18.13   
   186. D(C  10,C   8,C   6,H  37)   -135.20  0.001360    0.13   -135.07   
   187. D(C  10,C   8,C   6,O   7)    -19.29  0.000365    0.93    -18.36   
   188. D(C  10,C   8,C   6,C   5)    106.64  0.000168    0.22    106.86   
   189. D(O   9,C   8,C   6,H  37)    -15.38 -0.000179    0.25    -15.13   
   190. D(O   9,C   8,C   6,O   7)    100.53 -0.001173    1.05    101.58   
   191. D(O   9,C   8,C   6,C   5)   -133.54 -0.001371    0.34   -133.20   
   192. D(H  40,O   9,C   8,H  39)     61.92 -0.000996    0.70     62.62   
   193. D(H  40,O   9,C   8,C  10)    -56.34  0.002095   -0.22    -56.56   
   194. D(H  40,O   9,C   8,C   6)    179.53 -0.003253    1.20    180.73   
   195. D(H  42,C  10,C   8,H  39)   -154.79  0.004460   -1.59   -156.38   
   196. D(H  42,C  10,C   8,O   9)    -41.27 -0.002484    0.82    -40.45   
   197. D(H  42,C  10,C   8,C   6)     79.10  0.001842   -0.16     78.94   
   198. D(H  41,C  10,C   8,H  39)     83.94  0.002673   -1.13     82.81   
   199. D(H  41,C  10,C   8,O   9)   -162.55 -0.004271    1.28   -161.27   
   200. D(H  41,C  10,C   8,C   6)    -42.17  0.000056    0.29    -41.88   
   201. D(O  11,C  10,C   8,O   9)     75.86 -0.004435    1.39     77.25   
   202. D(O  11,C  10,C   8,H  39)    -37.66  0.002509   -1.02    -38.68   
   203. D(O  11,C  10,C   8,C   6)   -163.77 -0.000109    0.41   -163.36   
   204. D(P  12,O  11,C  10,H  42)   -104.02  0.000854    0.62   -103.41   
   205. D(P  12,O  11,C  10,H  41)     13.62 -0.003150    1.43     15.04   
   206. D(P  12,O  11,C  10,C   8)    136.31 -0.003003    1.18    137.49   
   207. D(O  14,P  12,O  11,C  10)     83.33  0.003439    0.76     84.09   
   208. D(O  13,P  12,O  11,C  10)    -42.13 -0.001157    1.25    -40.88   
   209. D(O  15,P  12,O  11,C  10)   -171.50 -0.007740    2.23   -169.27   
   210. D(H  43,O  14,P  12,O  15)     96.58 -0.005902    1.50     98.07   
   211. D(H  43,O  14,P  12,O  13)    -26.90  0.002780    0.07    -26.82   
   212. D(H  43,O  14,P  12,O  11)   -155.72  0.000294    0.73   -154.98   
   213. D(H  44,O  15,P  12,O  11)    -54.09 -0.000818    0.22    -53.87   
   214. D(H  44,O  15,P  12,O  14)     54.21  0.004753   -0.41     53.81   
   215. D(H  44,O  15,P  12,O  13)    175.30 -0.005277    1.28    176.57   
   216. D(C  21,C  16,C   3,C   5)    169.38  0.002445   -1.19    168.19   
   217. D(C  21,C  16,C   3,O   4)    -71.27  0.002419   -1.25    -72.52   
   218. D(C  21,C  16,C   3,C   1)     50.33 -0.000194   -0.12     50.21   
   219. D(C  18,C  16,C   3,C   5)    -71.26  0.003249   -1.65    -72.92   
   220. D(C  18,C  16,C   3,O   4)     48.09  0.003223   -1.71     46.38   
   221. D(C  18,C  16,C   3,C   1)    169.69  0.000610   -0.58    169.11   
   222. D(O  17,C  16,C   3,C   5)     47.84 -0.000916   -0.00     47.84   
   223. D(O  17,C  16,C   3,O   4)    167.19 -0.000942   -0.06    167.13   
   224. D(O  17,C  16,C   3,C   1)    -71.21 -0.003555    1.07    -70.14   
   225. D(H  45,O  17,C  16,C  21)    148.58 -0.002634    1.25    149.83   
   226. D(H  45,O  17,C  16,C  18)     32.39  0.000354    0.22     32.61   
   227. D(H  45,O  17,C  16,C   3)    -86.55  0.000703   -0.25    -86.80   
   228. D(O  20,C  18,C  16,C  21)   -139.00  0.002122   -1.33   -140.33   
   229. D(O  20,C  18,C  16,O  17)    -22.47  0.000942   -0.72    -23.19   
   230. D(O  20,C  18,C  16,C   3)     97.77 -0.000314   -0.15     97.63   
   231. D(O  19,C  18,C  16,C  21)     39.41  0.001074   -0.54     38.86   
   232. D(O  19,C  18,C  16,O  17)    155.93 -0.000106    0.07    156.01   
   233. D(O  19,C  18,C  16,C   3)    -83.82 -0.001362    0.65    -83.17   
   234. D(H  46,O  20,C  18,O  19)      0.23  0.000440   -0.42     -0.19   
   235. D(H  46,O  20,C  18,C  16)    178.76 -0.000221    0.28    179.03   
   236. D(H  47,C  21,C  16,C  18)    170.15 -0.002805    1.08    171.23   
   237. D(H  47,C  21,C  16,O  17)     53.09  0.002264   -0.78     52.32   
   238. D(H  47,C  21,C  16,C   3)    -69.89 -0.000276    0.26    -69.63   
   239. D(C  23,C  21,C  16,C  18)     49.15 -0.002690    0.89     50.04   
   240. D(C  23,C  21,C  16,O  17)    -67.90  0.002379   -0.97    -68.87   
   241. D(C  23,C  21,C  16,C   3)    169.11 -0.000161    0.07    169.18   
   242. D(O  22,C  21,C  16,C  18)    -74.72 -0.003237    1.48    -73.24   
   243. D(O  22,C  21,C  16,O  17)    168.23  0.001833   -0.38    167.85   
   244. D(O  22,C  21,C  16,C   3)     45.24 -0.000708    0.65     45.90   
   245. D(H  48,O  22,C  21,H  47)    177.70  0.001402   -0.55    177.15   
   246. D(H  48,O  22,C  21,C  23)    -69.38 -0.003127    0.60    -68.77   
   247. D(H  48,O  22,C  21,C  16)     60.45  0.002311   -0.76     59.68   
   248. D(H  49,C  23,C  21,H  47)    167.30 -0.003765    1.24    168.54   
   249. D(H  49,C  23,C  21,O  22)     55.61 -0.000835    0.24     55.84   
   250. D(H  49,C  23,C  21,C  16)    -70.81 -0.003099    1.16    -69.65   
   251. D(C  25,C  23,C  21,H  47)    -67.75 -0.001380    0.34    -67.41   
   252. D(C  25,C  23,C  21,O  22)   -179.45  0.001550   -0.66   -180.11   
   253. D(C  25,C  23,C  21,C  16)     54.13 -0.000714    0.26     54.40   
   254. D(O  24,C  23,C  21,H  47)     54.70  0.001835   -0.75     53.96   
   255. D(O  24,C  23,C  21,O  22)    -57.00  0.004764   -1.75    -58.74   
   256. D(O  24,C  23,C  21,C  16)    176.59  0.002501   -0.82    175.77   
   257. D(H  50,O  24,C  23,H  49)    -71.90  0.001152   -0.48    -72.38   
   258. D(H  50,O  24,C  23,C  25)    171.66  0.001004   -0.68    170.98   
   259. D(H  50,O  24,C  23,C  21)     44.57 -0.001108    0.34     44.91   
   260. D(H  51,C  25,C  23,H  49)     71.76 -0.000493    0.39     72.15   
   261. D(H  51,C  25,C  23,O  24)   -174.78 -0.004069    1.89   -172.89   
   262. D(H  51,C  25,C  23,C  21)    -53.73 -0.002241    1.08    -52.65   
   263. D(C  27,C  25,C  23,H  49)   -163.05  0.003181   -0.92   -163.97   
   264. D(C  27,C  25,C  23,O  24)    -49.59 -0.000395    0.58    -49.01   
   265. D(C  27,C  25,C  23,C  21)     71.46  0.001433   -0.23     71.23   
   266. D(O  26,C  25,C  23,H  49)    -42.03  0.001580   -0.76    -42.79   
   267. D(O  26,C  25,C  23,O  24)     71.43 -0.001997    0.74     72.17   
   268. D(O  26,C  25,C  23,C  21)   -167.52 -0.000169   -0.07   -167.58   
   269. D(H  52,O  26,C  25,H  51)     78.60 -0.001635    0.88     79.48   
   270. D(H  52,O  26,C  25,C  27)    -38.82  0.001054   -0.02    -38.83   
   271. D(H  52,O  26,C  25,C  23)   -162.83 -0.001649    0.87   -161.96   
   272. D(H  53,C  27,C  25,H  51)   -168.95  0.004061   -1.53   -170.49   
   273. D(H  53,C  27,C  25,O  26)    -55.65 -0.002505    0.65    -55.00   
   274. D(H  53,C  27,C  25,C  23)     65.30  0.001195   -0.21     65.09   
   275. D(O  28,C  27,C  25,H  51)    -50.82  0.002867   -1.20    -52.02   
   276. D(O  28,C  27,C  25,O  26)     62.49 -0.003699    0.98     63.47   
   277. D(O  28,C  27,C  25,C  23)   -176.56  0.000001    0.12   -176.44   
   278. D(H  54,C  27,C  25,H  51)     68.66  0.003112   -1.28     67.38   
   279. D(H  54,C  27,C  25,O  26)   -178.04 -0.003455    0.90   -177.14   
   280. D(H  54,C  27,C  25,C  23)    -57.09  0.000245    0.04    -57.04   
   281. D(P  29,O  28,C  27,H  54)     60.59 -0.002364    0.72     61.31   
   282. D(P  29,O  28,C  27,H  53)    -58.44  0.001734   -0.07    -58.51   
   283. D(P  29,O  28,C  27,C  25)   -178.39 -0.000642    0.31   -178.08   
   284. D(O  32,P  29,O  28,C  27)   -177.38  0.007641   -1.52   -178.90   
   285. D(O  31,P  29,O  28,C  27)    -72.08 -0.003680   -0.01    -72.09   
   286. D(O  30,P  29,O  28,C  27)     53.22 -0.002130    0.04     53.26   
   287. D(H  55,O  31,P  29,O  32)    -97.80  0.006981   -1.83    -99.63   
   288. D(H  55,O  31,P  29,O  30)     25.75 -0.002437   -0.31     25.44   
   289. D(H  55,O  31,P  29,O  28)    154.23 -0.000956   -0.77    153.46   
   290. D(H  56,O  32,P  29,O  31)    -51.86 -0.005486    0.47    -51.39   
   291. D(H  56,O  32,P  29,O  30)   -172.94  0.007398   -1.69   -174.63   
   292. D(H  56,O  32,P  29,O  28)     56.68 -0.000347   -0.06     56.62   
    ----------------------------------------------------------------------------

         *************************************************************
         *                GEOMETRY OPTIMIZATION CYCLE   2            *
         *************************************************************
---------------------------------
CARTESIAN COORDINATES (ANGSTROEM)
---------------------------------
  O     0.235241    2.223962    1.050617
  C     0.696725    1.537201    0.174858
  O     1.100153    2.063197   -0.989615
  C     0.891819    0.021968    0.234902
  O     1.646810   -0.459350   -0.856767
  C     1.663572   -0.296218    1.523802
  C     3.091514    0.270032    1.604197
  O     3.080342    1.687888    1.509072
  C     4.055709   -0.310227    0.567768
  O     5.267063   -0.660966    1.249727
  C     4.392335    0.672498   -0.549310
  O     4.957699   -0.056388   -1.637233
  P     4.462496    0.352979   -3.097273
  O     3.026401    0.645224   -3.274116
  O     5.392502    1.597803   -3.483479
  O     5.046403   -0.811032   -4.010399
  C    -0.518692   -0.660151    0.244332
  O    -1.175554   -0.421611    1.479309
  C    -0.322100   -2.159448    0.029234
  O    -0.184921   -2.710058   -1.032467
  O    -0.330515   -2.860628    1.180052
  C    -1.438614   -0.141555   -0.881146
  O    -0.755859   -0.082831   -2.122599
  C    -2.745166   -0.927068   -1.117534
  O    -3.470616   -0.218937   -2.119306
  C    -3.646838   -1.117559    0.096372
  O    -4.631957   -2.093441   -0.242284
  C    -4.330293    0.171099    0.531073
  O    -5.070890   -0.122369    1.714482
  P    -5.915927    1.081165    2.330032
  O    -6.847477    1.777399    1.426284
  O    -4.812163    2.056560    2.954545
  O    -6.573703    0.423796    3.623903
  H     0.960387    3.023666   -0.921641
  H     1.484112    0.112755   -1.629505
  H     1.103083    0.103669    2.374457
  H     1.726410   -1.380316    1.651205
  H     3.476982    0.008015    2.599358
  H     2.633592    2.035536    2.291580
  H     3.660938   -1.246580    0.160366
  H     5.862746   -1.012883    0.575696
  H     3.510300    1.219593   -0.883256
[...]
 83:    812.84   0.065276  329.88  0.025060  ( 0.100802  0.086201 -0.086420)
 84:    813.63   0.055383  279.88  0.021242  (-0.068042 -0.069465 -0.108565)
 85:    825.57   0.006214   31.40  0.002349  ( 0.019251  0.018194 -0.040586)
 86:    843.98   0.014190   71.71  0.005247  (-0.053153 -0.048167 -0.010069)
 87:    850.52   0.022668  114.56  0.008317  (-0.048922 -0.074587 -0.018994)
 88:    881.77   0.004809   24.30  0.001702  ( 0.038030 -0.005413 -0.015040)
 89:    899.43   0.038431  194.22  0.013334  ( 0.108381  0.015439 -0.036734)
 90:    901.48   0.081654  412.64  0.028266  ( 0.087505  0.142493 -0.017451)
 91:    912.46   0.107975  545.66  0.036928  (-0.064064  0.099256  0.151565)
 92:    912.87   0.000638    3.22  0.000218  ( 0.011615  0.007778 -0.004754)
 93:    921.56   0.007112   35.94  0.002408  ( 0.014548 -0.046666 -0.004348)
 94:    925.21   0.081016  409.42  0.027326  (-0.001853 -0.051424 -0.157092)
 95:    946.83   0.010149   51.29  0.003345  ( 0.009559 -0.053699 -0.019235)
 96:    982.74   0.000932    4.71  0.000296  ( 0.013091  0.002970 -0.010762)
 97:    993.13   0.015659   79.13  0.004920  ( 0.037347 -0.027496  0.052627)
 98:   1010.95   0.003801   19.21  0.001173  ( 0.002029  0.033204 -0.008173)
 99:   1034.69   0.006856   34.65  0.002068  (-0.000014  0.036014 -0.027761)
100:   1044.19   0.012836   64.87  0.003836  (-0.030263  0.003720  0.053912)
101:   1057.54   0.007331   37.05  0.002163  ( 0.037829 -0.024278  0.011953)
102:   1078.98   0.003480   17.58  0.001006  (-0.022779 -0.020266 -0.008762)
103:   1083.67   0.024740  125.02  0.007124  (-0.068011  0.013679  0.048080)
104:   1085.32   0.015320   77.42  0.004405  ( 0.006442 -0.003017 -0.065988)
105:   1086.29   0.006827   34.50  0.001961  ( 0.022071  0.034666 -0.016505)
106:   1091.06   0.006262   31.65  0.001791  (-0.000320 -0.014141  0.039889)
107:   1109.99   0.011798   59.62  0.003317  ( 0.032072 -0.035318  0.032266)
108:   1110.97   0.025848  130.63  0.007261  ( 0.003807  0.058678 -0.061668)
109:   1115.85   0.018527   93.63  0.005181  ( 0.031854 -0.059453 -0.025140)
110:   1124.03   0.054097  273.38  0.015019  (-0.061553 -0.027089  0.102452)
111:   1135.53   0.006982   35.28  0.001919  ( 0.022362 -0.023362  0.029545)
112:   1143.05   0.026254  132.68  0.007168  ( 0.006739 -0.026414  0.080153)
113:   1147.65   0.019322   97.65  0.005254  ( 0.003158  0.070044 -0.018383)
114:   1163.75   0.004496   22.72  0.001206  ( 0.019768 -0.000382 -0.028545)
115:   1171.90   0.006398   32.33  0.001704  (-0.031925  0.022041  0.014095)
116:   1195.77   0.007184   36.31  0.001875  (-0.007158 -0.042529  0.003875)
117:   1199.56   0.012368   62.50  0.003218  ( 0.042731 -0.037304 -0.000127)
118:   1214.95   0.008941   45.18  0.002296  ( 0.044182  0.008398 -0.016550)
119:   1218.92   0.028589  144.48  0.007319  ( 0.029649  0.079248  0.012646)
120:   1234.30   0.015933   80.52  0.004028  (-0.036658  0.036934 -0.036335)
121:   1237.17   0.013450   67.97  0.003393  (-0.014006  0.038774  0.041145)
122:   1250.31   0.015997   80.84  0.003993  ( 0.049623  0.038704  0.005686)
123:   1251.86   0.016550   83.64  0.004126  (-0.016380 -0.057255 -0.024066)
124:   1254.98   0.108560  548.62  0.026995  (-0.109489  0.092993 -0.079744)
125:   1257.56   0.029457  148.86  0.007310  ( 0.073090  0.021515 -0.038790)
126:   1269.90   0.045700  230.95  0.011230  (-0.087366  0.023524  0.055173)
127:   1274.35   0.015042   76.02  0.003684  (-0.015125  0.035523 -0.046828)
128:   1275.21   0.022433  113.37  0.005490  ( 0.047550 -0.056390  0.006998)
129:   1286.42   0.011164   56.42  0.002708  ( 0.009965  0.040914  0.030578)
130:   1288.57   0.038657  195.35  0.009362  ( 0.075269 -0.024409  0.055683)
131:   1293.01   0.011365   57.44  0.002743  ( 0.025734 -0.044663  0.009270)
132:   1302.85   0.013763   69.55  0.003297  ( 0.022546 -0.030400  0.043175)
133:   1314.58   0.023653  119.53  0.005615  (-0.058857  0.045367 -0.009626)
134:   1317.65   0.002689   13.59  0.000637  (-0.000419  0.018883 -0.016735)
135:   1325.46   0.004070   20.57  0.000958  ( 0.012491  0.016448  0.023059)
136:   1333.80   0.000910    4.60  0.000213  ( 0.008045 -0.011799 -0.003001)
137:   1338.30   0.001255    6.34  0.000293  (-0.015101 -0.005491 -0.005869)
138:   1341.42   0.007042   35.59  0.001638  ( 0.030361 -0.015633  0.021725)
139:   1350.88   0.017189   86.87  0.003971  ( 0.001152 -0.020829  0.059461)
140:   1361.73   0.001378    6.96  0.000316  ( 0.013298  0.010210  0.005885)
141:   1367.60   0.005427   27.43  0.001238  (-0.030435 -0.012273  0.012708)
142:   1434.85   0.006765   34.19  0.001471  (-0.037329 -0.008050 -0.003607)
143:   1437.32   0.006063   30.64  0.001316  ( 0.007094  0.035531 -0.001904)
144:   1445.71   0.005180   26.18  0.001118  ( 0.029969  0.014689 -0.002062)
145:   1775.93   0.116096  586.70  0.020400  (-0.010490 -0.035713 -0.137894)
146:   1778.15   0.036461  184.26  0.006399  (-0.061491  0.050630  0.007367)
147:   2860.56   0.015934   80.52  0.001738  ( 0.017882 -0.026779  0.026483)
148:   2876.07   0.002140   10.81  0.000232  (-0.002743 -0.014988  0.000058)
149:   2888.12   0.005574   28.17  0.000602  ( 0.010172  0.021618  0.005612)
150:   2890.55   0.008899   44.97  0.000961  (-0.013580 -0.027809 -0.001730)
151:   2941.41   0.005455   27.57  0.000579  ( 0.006237 -0.023092 -0.002579)
152:   2955.47   0.011630   58.77  0.001228  (-0.013477 -0.028791 -0.014745)
153:   2988.38   0.005345   27.01  0.000558  (-0.017005 -0.016214 -0.002475)
154:   2993.73   0.000285    1.44  0.000030  ( 0.001922  0.005038 -0.000792)
155:   2997.07   0.000861    4.35  0.000090  (-0.008846  0.003380 -0.000052)
156:   3006.99   0.002011   10.16  0.000209  ( 0.007092 -0.012561 -0.000806)
157:   3019.94   0.001457    7.36  0.000151  (-0.001562 -0.012163  0.000470)
158:   3208.10   0.209793  1060.21  0.020407  (-0.119917 -0.027913  0.072443)
159:   3270.01   0.029449  148.83  0.002810  ( 0.049133 -0.003012  0.019681)
160:   3353.65   0.044343  224.09  0.004126  (-0.046827 -0.013974  0.041692)
161:   3392.24   0.021020  106.23  0.001934  ( 0.039385 -0.007121 -0.018215)
162:   3420.66   0.020154  101.85  0.001839  (-0.011293  0.038542  0.015020)
163:   3427.37   0.007860   39.72  0.000716  ( 0.004547  0.023226  0.012471)
164:   3459.25   0.018700   94.50  0.001687  ( 0.006750 -0.040498  0.001157)
165:   3511.57   0.001338    6.76  0.000119  (-0.008448 -0.000967  0.006825)
166:   3528.42   0.004763   24.07  0.000421  (-0.015913 -0.007352  0.010674)
167:   3600.31   0.008136   41.11  0.000705  ( 0.011601 -0.018684  0.014882)
168:   3604.97   0.010778   54.47  0.000933  ( 0.024317 -0.013674 -0.012438)
169:   3628.69   0.018101   91.48  0.001557  ( 0.011847  0.034922 -0.014027)
170:   3638.45   0.018862   95.32  0.001618  ( 0.004235  0.034732 -0.019837)

* The epsilon (eps) is given for a Dirac delta lineshape.
** The dipole moment derivative (T) already includes vibrational overlap.

The first frequency considered to be a vibration is 6
The total number of vibrations considered is 165


--------------------------
THERMOCHEMISTRY AT 298.15K
--------------------------

Temperature         ... 298.15 K
Pressure            ... 1.00 atm
Total Mass          ... 534.25 AMU

Throughout the following assumptions are being made:
  (1) The electronic state is orbitally nondegenerate
  (2) There are no thermally accessible electronically excited states
  (3) Hindered rotations indicated by low frequency modes are not
      treated as such but are treated as vibrations and this may
      cause some error
  (4) All equations used are the standard statistical mechanics
      equations for an ideal gas
  (5) All vibrations are strictly harmonic

freq.       9.58  E(vib)   ...       0.58 
freq.      15.17  E(vib)   ...       0.57 
freq.      17.85  E(vib)   ...       0.57 
freq.      19.96  E(vib)   ...       0.56 
freq.      29.13  E(vib)   ...       0.55 
freq.      37.16  E(vib)   ...       0.54 
freq.      40.28  E(vib)   ...       0.54 
freq.      51.18  E(vib)   ...       0.52 
freq.      59.20  E(vib)   ...       0.51 
freq.      65.53  E(vib)   ...       0.50 
freq.      75.46  E(vib)   ...       0.49 
freq.      81.82  E(vib)   ...       0.48 
freq.      96.66  E(vib)   ...       0.47 
freq.     107.37  E(vib)   ...       0.45 
freq.     113.70  E(vib)   ...       0.44 
freq.     118.79  E(vib)   ...       0.44 
freq.     134.84  E(vib)   ...       0.42 
freq.     148.61  E(vib)   ...       0.41 
freq.     156.59  E(vib)   ...       0.40 
freq.     166.01  E(vib)   ...       0.39 
freq.     170.97  E(vib)   ...       0.38 
freq.     179.56  E(vib)   ...       0.37 
freq.     192.98  E(vib)   ...       0.36 
freq.     195.93  E(vib)   ...       0.36 
freq.     203.36  E(vib)   ...       0.35 
freq.     213.43  E(vib)   ...       0.34 
freq.     215.21  E(vib)   ...       0.34 
freq.     225.88  E(vib)   ...       0.33 
freq.     231.86  E(vib)   ...       0.32 
freq.     244.48  E(vib)   ...       0.31 
freq.     264.15  E(vib)   ...       0.29 
freq.     273.18  E(vib)   ...       0.29 
freq.     280.82  E(vib)   ...       0.28 
freq.     283.37  E(vib)   ...       0.28 
freq.     302.64  E(vib)   ...       0.26 
freq.     316.59  E(vib)   ...       0.25 
freq.     328.26  E(vib)   ...       0.24 
freq.     335.15  E(vib)   ...       0.24 
freq.     339.83  E(vib)   ...       0.23 
freq.     343.04  E(vib)   ...       0.23 
freq.     352.10  E(vib)   ...       0.23 
freq.     357.82  E(vib)   ...       0.22 
freq.     358.54  E(vib)   ...       0.22 
freq.     365.15  E(vib)   ...       0.22 
freq.     375.11  E(vib)   ...       0.21 
freq.     388.59  E(vib)   ...       0.20 
freq.     391.41  E(vib)   ...       0.20 
freq.     410.84  E(vib)   ...       0.19 
freq.     413.71  E(vib)   ...       0.19 
freq.     417.42  E(vib)   ...       0.18 
freq.     423.26  E(vib)   ...       0.18 
freq.     431.46  E(vib)   ...       0.18 
freq.     437.79  E(vib)   ...       0.17 
freq.     453.75  E(vib)   ...       0.16 
freq.     464.21  E(vib)   ...       0.16 
freq.     475.84  E(vib)   ...       0.15 
freq.     480.07  E(vib)   ...       0.15 
freq.     498.07  E(vib)   ...       0.14 
freq.     501.26  E(vib)   ...       0.14 
freq.     510.07  E(vib)   ...       0.14 
freq.     523.52  E(vib)   ...       0.13 
freq.     545.32  E(vib)   ...       0.12 
freq.     560.06  E(vib)   ...       0.12 
freq.     570.07  E(vib)   ...       0.11 
freq.     577.32  E(vib)   ...       0.11 
freq.     587.80  E(vib)   ...       0.10 
freq.     599.23  E(vib)   ...       0.10 
freq.     617.88  E(vib)   ...       0.09 
freq.     633.55  E(vib)   ...       0.09 
freq.     641.93  E(vib)   ...       0.09 
freq.     682.66  E(vib)   ...       0.08 
freq.     699.30  E(vib)   ...       0.07 
freq.     707.27  E(vib)   ...       0.07 
freq.     741.74  E(vib)   ...       0.06 
freq.     749.29  E(vib)   ...       0.06 
freq.     751.02  E(vib)   ...       0.06 
freq.     765.43  E(vib)   ...       0.06 
freq.     812.84  E(vib)   ...       0.05 
freq.     813.63  E(vib)   ...       0.05 
freq.     825.57  E(vib)   ...       0.04 
freq.     843.98  E(vib)   ...       0.04 
freq.     850.52  E(vib)   ...       0.04 
freq.     881.77  E(vib)   ...       0.04 
freq.     899.43  E(vib)   ...       0.03 
freq.     901.48  E(vib)   ...       0.03 
freq.     912.46  E(vib)   ...       0.03 
freq.     912.87  E(vib)   ...       0.03 
freq.     921.56  E(vib)   ...       0.03 
freq.     925.21  E(vib)   ...       0.03 
freq.     946.83  E(vib)   ...       0.03 
freq.     982.74  E(vib)   ...       0.02 
freq.     993.13  E(vib)   ...       0.02 
freq.    1010.95  E(vib)   ...       0.02 
freq.    1034.69  E(vib)   ...       0.02 
freq.    1044.19  E(vib)   ...       0.02 
freq.    1057.54  E(vib)   ...       0.02 
freq.    1078.98  E(vib)   ...       0.02 
freq.    1083.67  E(vib)   ...       0.02 
freq.    1085.32  E(vib)   ...       0.02 
freq.    1086.29  E(vib)   ...       0.02 
freq.    1091.06  E(vib)   ...       0.02 
freq.    1109.99  E(vib)   ...       0.02 
freq.    1110.97  E(vib)   ...       0.01 
freq.    1115.85  E(vib)   ...       0.01 
freq.    1124.03  E(vib)   ...       0.01 
freq.    1135.53  E(vib)   ...       0.01 
freq.    1143.05  E(vib)   ...       0.01 
freq.    1147.65  E(vib)   ...       0.01 
freq.    1163.75  E(vib)   ...       0.01 
freq.    1171.90  E(vib)   ...       0.01 
freq.    1195.77  E(vib)   ...       0.01 
freq.    1199.56  E(vib)   ...       0.01 
freq.    1214.95  E(vib)   ...       0.01 
freq.    1218.92  E(vib)   ...       0.01 
freq.    1234.30  E(vib)   ...       0.01 
freq.    1237.17  E(vib)   ...       0.01 
freq.    1250.31  E(vib)   ...       0.01 
freq.    1251.86  E(vib)   ...       0.01 
freq.    1254.98  E(vib)   ...       0.01 
freq.    1257.56  E(vib)   ...       0.01 
freq.    1269.90  E(vib)   ...       0.01 
freq.    1274.35  E(vib)   ...       0.01 
freq.    1275.21  E(vib)   ...       0.01 
freq.    1286.42  E(vib)   ...       0.01 
freq.    1288.57  E(vib)   ...       0.01 
freq.    1293.01  E(vib)   ...       0.01 
freq.    1302.85  E(vib)   ...       0.01 
freq.    1314.58  E(vib)   ...       0.01 
freq.    1317.65  E(vib)   ...       0.01 
freq.    1325.46  E(vib)   ...       0.01 
freq.    1333.80  E(vib)   ...       0.01 
freq.    1338.30  E(vib)   ...       0.01 
freq.    1341.42  E(vib)   ...       0.01 
freq.    1350.88  E(vib)   ...       0.01 
freq.    1361.73  E(vib)   ...       0.01 
freq.    1367.60  E(vib)   ...       0.01 
freq.    1434.85  E(vib)   ...       0.00 
freq.    1437.32  E(vib)   ...       0.00 
freq.    1445.71  E(vib)   ...       0.00 
freq.    1775.93  E(vib)   ...       0.00 
freq.    1778.15  E(vib)   ...       0.00 
freq.    2860.56  E(vib)   ...       0.00 
freq.    2876.07  E(vib)   ...       0.00 
freq.    2888.12  E(vib)   ...       0.00 
freq.    2890.55  E(vib)   ...       0.00 
freq.    2941.41  E(vib)   ...       0.00 
freq.    2955.47  E(vib)   ...       0.00 
freq.    2988.38  E(vib)   ...       0.00 
freq.    2993.73  E(vib)   ...       0.00 
freq.    2997.07  E(vib)   ...       0.00 
freq.    3006.99  E(vib)   ...       0.00 
freq.    3019.94  E(vib)   ...       0.00 
freq.    3208.10  E(vib)   ...       0.00 
freq.    3270.01  E(vib)   ...       0.00 
freq.    3353.65  E(vib)   ...       0.00 
freq.    3392.24  E(vib)   ...       0.00 
freq.    3420.66  E(vib)   ...       0.00 
freq.    3427.37  E(vib)   ...       0.00 
freq.    3459.25  E(vib)   ...       0.00 
freq.    3511.57  E(vib)   ...       0.00 
freq.    3528.42  E(vib)   ...       0.00 
freq.    3600.31  E(vib)   ...       0.00 
freq.    3604.97  E(vib)   ...       0.00 
freq.    3628.69  E(vib)   ...       0.00 
freq.    3638.45  E(vib)   ...       0.00 

------------
INNER ENERGY
------------

The inner energy is: U= E(el) + E(ZPE) + E(vib) + E(rot) + E(trans)
    E(el)   - is the total energy from the electronic structure calculation
              = E(kin-el) + E(nuc-el) + E(el-el) + E(nuc-nuc)
    E(ZPE)  - the the zero temperature vibrational energy from the frequency calculation
    E(vib)  - the the finite temperature correction to E(ZPE) due to population
              of excited vibrational states
    E(rot)  - is the rotational thermal energy
    E(trans)- is the translational thermal energy

Summary of contributions to the inner energy U:
Electronic energy                ...   -120.57824655 Eh
Zero point energy                ...      0.40564125 Eh     254.54 kcal/mol
Thermal vibrational correction   ...      0.03511960 Eh      22.04 kcal/mol
Thermal rotational correction    ...      0.00141627 Eh       0.89 kcal/mol
Thermal translational correction ...      0.00141627 Eh       0.89 kcal/mol
-----------------------------------------------------------------------
Total thermal energy                   -120.13465316 Eh


Summary of corrections to the electronic energy:
(perhaps to be used in another calculation)
Total thermal correction                  0.03795214 Eh      23.82 kcal/mol
Non-thermal (ZPE) correction              0.40564125 Eh     254.54 kcal/mol
-----------------------------------------------------------------------
Total correction                          0.44359339 Eh     278.36 kcal/mol


--------
ENTHALPY
--------

The enthalpy is H = U + kB*T
                kB is Boltzmann's constant
Total free energy                 ...   -120.13465316 Eh 
Thermal Enthalpy correction       ...      0.00094421 Eh       0.59 kcal/mol
-----------------------------------------------------------------------
Total Enthalpy                    ...   -120.13370895 Eh


Note: Only C1 symmetry has been detected, increase convergence thresholds 
      if your molecule has a higher symmetry. Symmetry factor of 1.0 is   
      used for the rotational entropy correction. 
 

Note: Rotational entropy computed according to Herzberg 
Infrared and Raman Spectra, Chapter V,1, Van Nostrand Reinhold, 1945 
Point Group:  C1, Symmetry Number:   1  
Rotational constants in cm-1:     0.009643     0.001605     0.001562 

Vibrational entropy computed according to the QRRHO of S. Grimme
Chem.Eur.J. 2012 18 9955


-------
ENTROPY
-------

The entropy contributions are T*S = T*(S(el)+S(vib)+S(rot)+S(trans))
     S(el)   - electronic entropy
     S(vib)  - vibrational entropy
     S(rot)  - rotational entropy
     S(trans)- translational entropy
The entropies will be listed as multiplied by the temperature to get
units of energy

Electronic entropy                ...      0.00000000 Eh      0.00 kcal/mol
Vibrational entropy               ...      0.06372066 Eh     39.99 kcal/mol
Rotational entropy                ...      0.01779036 Eh     11.16 kcal/mol
Translational entropy             ...      0.02124449 Eh     13.33 kcal/mol
-----------------------------------------------------------------------
Final entropy term                ...      0.10275551 Eh     64.48 kcal/mol

In case the symmetry of your molecule has not been determined correctly
or in case you have a reason to use a different symmetry number we print 
out the resulting rotational entropy values for sn=1,12 :
 --------------------------------------------------------
|  sn= 1 | S(rot)=       0.01779036 Eh     11.16 kcal/mol|
|  sn= 2 | S(rot)=       0.01713590 Eh     10.75 kcal/mol|
|  sn= 3 | S(rot)=       0.01675307 Eh     10.51 kcal/mol|
|  sn= 4 | S(rot)=       0.01648145 Eh     10.34 kcal/mol|
|  sn= 5 | S(rot)=       0.01627076 Eh     10.21 kcal/mol|
|  sn= 6 | S(rot)=       0.01609862 Eh     10.10 kcal/mol|
|  sn= 7 | S(rot)=       0.01595307 Eh     10.01 kcal/mol|
|  sn= 8 | S(rot)=       0.01582699 Eh      9.93 kcal/mol|
|  sn= 9 | S(rot)=       0.01571578 Eh      9.86 kcal/mol|
|  sn=10 | S(rot)=       0.01561630 Eh      9.80 kcal/mol|
|  sn=11 | S(rot)=       0.01552631 Eh      9.74 kcal/mol|
|  sn=12 | S(rot)=       0.01544416 Eh      9.69 kcal/mol|
 --------------------------------------------------------


-------------------
GIBBS FREE ENERGY
-------------------

The Gibbs free energy is G = H - T*S

Total enthalpy                    ...   -120.13370895 Eh 
Total entropy correction          ...     -0.10275551 Eh    -64.48 kcal/mol
-----------------------------------------------------------------------
Final Gibbs free energy         ...   -120.23646446 Eh

For completeness - the Gibbs free energy minus the electronic energy
G-E(el)                           ...      0.34178209 Eh    214.47 kcal/mol



Timings for individual modules:

Sum of individual times         ...      905.453 sec (=  15.091 min)
Geometry relaxation             ...       21.571 sec (=   0.360 min)   2.4 %
Numerical frequency calculation ...      873.990 sec (=  14.566 min)  96.5 %
XTB module                      ...        9.893 sec (=   0.165 min)   1.1 %
                             ****ORCA TERMINATED NORMALLY****
TOTAL RUN TIME: 0 days 0 hours 15 minutes 18 seconds 470 msec
