
                                 *****************
                                 * O   R   C   A *
                                 *****************

                                            #,                                       
                                            ###                                      
                                            ####                                     
                                            #####                                    
                                            ######                                   
                                           ########,                                 
                                     ,,################,,,,,                         
                               ,,#################################,,                 
                          ,,##########################################,,             
                       ,#########################################, ''#####,          
                    ,#############################################,,   '####,        
                  ,##################################################,,,,####,       
                ,###########''''           ''''###############################       
              ,#####''   ,,,,##########,,,,          '''####'''          '####       
            ,##' ,,,,###########################,,,                        '##       
           ' ,,###''''                  '''############,,,                           
         ,,##''                                '''############,,,,        ,,,,,,###''
      ,#''                                            '''#######################'''  
     '                                                          ''''####''''         
             ,#######,   #######,   ,#######,      ##                                
            ,#'     '#,  ##    ##  ,#'     '#,    #''#        ######   ,####,        
            ##       ##  ##   ,#'  ##            #'  '#       #        #'  '#        
            ##       ##  #######   ##           ,######,      #####,   #    #        
            '#,     ,#'  ##    ##  '#,     ,#' ,#      #,         ##   #,  ,#        
             '#######'   ##     ##  '#######'  #'      '#     #####' # '####'        



                  #######################################################
                  #                        -***-                        #
                  #          Department of theory and spectroscopy      #
                  #    Directorship and core code : Frank Neese         #
                  #        Max Planck Institute fuer Kohlenforschung    #
                  #                Kaiser Wilhelm Platz 1               #
                  #                 D-45470 Muelheim/Ruhr               #
                  #                      Germany                        #
                  #                                                     #
                  #                  All rights reserved                #
                  #                        -***-                        #
                  #######################################################


                         Program Version 5.0.3 -  RELEASE  -


 With contributions from (in alphabetic order):
   Daniel Aravena         : Magnetic Suceptibility
   Michael Atanasov       : Ab Initio Ligand Field Theory (pilot matlab implementation)
   Alexander A. Auer      : GIAO ZORA, VPT2 properties, NMR spectrum
   Ute Becker             : Parallelization
   Giovanni Bistoni       : ED, misc. LED, open-shell LED, HFLD
   Martin Brehm           : Molecular dynamics
   Dmytro Bykov           : SCF Hessian
   Vijay G. Chilkuri      : MRCI spin determinant printing, contributions to CSF-ICE
   Dipayan Datta          : RHF DLPNO-CCSD density
   Achintya Kumar Dutta   : EOM-CC, STEOM-CC
   Dmitry Ganyushin       : Spin-Orbit,Spin-Spin,Magnetic field MRCI
   Miquel Garcia          : C-PCM and meta-GGA Hessian, CC/C-PCM, Gaussian charge scheme
   Yang Guo               : DLPNO-NEVPT2, F12-NEVPT2, CIM, IAO-localization
   Andreas Hansen         : Spin unrestricted coupled pair/coupled cluster methods
   Benjamin Helmich-Paris : MC-RPA, TRAH-SCF, COSX integrals
   Lee Huntington         : MR-EOM, pCC
   Robert Izsak           : Overlap fitted RIJCOSX, COSX-SCS-MP3, EOM
   Marcus Kettner         : VPT2
   Christian Kollmar      : KDIIS, OOCD, Brueckner-CCSD(T), CCSD density, CASPT2, CASPT2-K
   Simone Kossmann        : Meta GGA functionals, TD-DFT gradient, OOMP2, MP2 Hessian
   Martin Krupicka        : Initial AUTO-CI
   Lucas Lang             : DCDCAS
   Marvin Lechner         : AUTO-CI (C++ implementation), FIC-MRCC
   Dagmar Lenk            : GEPOL surface, SMD
   Dimitrios Liakos       : Extrapolation schemes; Compound Job, initial MDCI parallelization
   Dimitrios Manganas     : Further ROCIS development; embedding schemes
   Dimitrios Pantazis     : SARC Basis sets
   Anastasios Papadopoulos: AUTO-CI, single reference methods and gradients
   Taras Petrenko         : DFT Hessian,TD-DFT gradient, ASA, ECA, R-Raman, ABS, FL, XAS/XES, NRVS
   Peter Pinski           : DLPNO-MP2, DLPNO-MP2 Gradient
   Christoph Reimann      : Effective Core Potentials
   Marius Retegan         : Local ZFS, SOC
   Christoph Riplinger    : Optimizer, TS searches, QM/MM, DLPNO-CCSD(T), (RO)-DLPNO pert. Triples
   Tobias Risthaus        : Range-separated hybrids, TD-DFT gradient, RPA, STAB
   Michael Roemelt        : Original ROCIS implementation
   Masaaki Saitow         : Open-shell DLPNO-CCSD energy and density
   Barbara Sandhoefer     : DKH picture change effects
   Avijit Sen             : IP-ROCIS
   Kantharuban Sivalingam : CASSCF convergence, NEVPT2, FIC-MRCI
   Bernardo de Souza      : ESD, SOC TD-DFT
   Georgi Stoychev        : AutoAux, RI-MP2 NMR, DLPNO-MP2 response
   Willem Van den Heuvel  : Paramagnetic NMR
   Boris Wezisla          : Elementary symmetry handling
   Frank Wennmohs         : Technical directorship


 We gratefully acknowledge several colleagues who have allowed us to
 interface, adapt or use parts of their codes:
   Stefan Grimme, W. Hujo, H. Kruse, P. Pracht,  : VdW corrections, initial TS optimization,
                  C. Bannwarth, S. Ehlert          DFT functionals, gCP, sTDA/sTD-DF
   Ed Valeev, F. Pavosevic, A. Kumar             : LibInt (2-el integral package), F12 methods
   Garnet Chan, S. Sharma, J. Yang, R. Olivares  : DMRG
   Ulf Ekstrom                                   : XCFun DFT Library
   Mihaly Kallay                                 : mrcc  (arbitrary order and MRCC methods)
   Jiri Pittner, Ondrej Demel                    : Mk-CCSD
   Frank Weinhold                                : gennbo (NPA and NBO analysis)
   Christopher J. Cramer and Donald G. Truhlar   : smd solvation model
   Lars Goerigk                                  : TD-DFT with DH, B97 family of functionals
   V. Asgeirsson, H. Jonsson                     : NEB implementation
   FAccTs GmbH                                   : IRC, NEB, NEB-TS, DLPNO-Multilevel, CI-OPT
                                                   MM, QMMM, 2- and 3-layer-ONIOM, Crystal-QMMM,
                                                   LR-CPCM, SF, NACMEs, symmetry and pop. for TD-DFT,
                                                   nearIR, NL-DFT gradient (VV10), updates on ESD,
                                                   ML-optimized integration grids
   S Lehtola, MJT Oliveira, MAL Marques          : LibXC Library
   Liviu Ungur et al                             : ANISO software


 Your calculation uses the libint2 library for the computation of 2-el integrals
 For citations please refer to: http://libint.valeyev.net

 Your ORCA version has been built with support for libXC version: 5.1.0
 For citations please refer to: https://tddft.org/programs/libxc/

 This ORCA versions uses:
   CBLAS   interface :  Fast vector & matrix operations
   LAPACKE interface :  Fast linear algebra routines
   SCALAPACK package :  Parallel linear algebra routines
   Shared memory     :  Shared parallel matrices
   BLAS/LAPACK       :  OpenBLAS 0.3.15  USE64BITINT DYNAMIC_ARCH NO_AFFINITY Haswell SINGLE_THREADED
        Core in use  :  Haswell
   Copyright (c) 2011-2014, The OpenBLAS Project


Your calculation utilizes the semiempirical GFN2-xTB method
Please cite in your paper:
C. Bannwarth, Ehlert S., S. Grimme,  J. Chem. Theory Comput., 15, (2019), 1652.
   

================================================================================

================================================================================
                                        WARNINGS
                       Please study these warnings very carefully!
================================================================================


WARNING: Geometry Optimization
  ===> : Switching off AutoStart
         For restart on a previous wavefunction, please use MOREAD

WARNING: Found dipole moment calculation with XTB calculation
  ===> : Switching off dipole moment calculation


WARNING: TRAH-SCF for XTB is not implemented!
  ===> : Turning TRAH off!

================================================================================
                                       INPUT FILE
================================================================================
NAME = /tmp/28.inp
|  1> ! XTB2 opt numfreq
|  2> * xyz 0 1
|  3> O 3.134196 -.178322 2.454408
|  4> C 3.121906 -.819875 1.437607
|  5> C 2.566117 -.312162 .124519
|  6> O 2.853319 -1.201686 -.922503
|  7> C 3.120896 1.096306 -.135787
|  8> O 4.487880 1.136953 .239087
|  9> P 4.843949 2.025100 1.511194
| 10> O 3.759315 2.832584 2.069270
| 11> O 6.067404 2.785997 .840853
| 12> O 5.552918 1.066903 2.581999
| 13> C .993501 -.329068 .342043
| 14> O .678089 -1.558444 .919260
| 15> O .611498 .696598 1.188372
| 16> C .278991 -.076278 -1.000270
| 17> O .554832 1.224899 -1.457816
| 18> C -1.260272 -.221782 -.921024
| 19> O -1.770933 .208772 -2.172004
| 20> C -1.733412 -1.659261 -.602093
| 21> O -.854627 -2.627748 -1.132392
| 22> C -3.154134 -1.953418 -1.134652
| 23> O -3.120016 -2.105553 -2.527541
| 24> C -4.169562 -.890606 -.702293
| 25> O -4.094465 -.734590 .706671
| 26> P -4.654736 .635492 1.295465
| 27> O -5.983378 1.050827 .844134
| 28> O -4.498683 .394477 2.855343
| 29> O -3.493629 1.675066 .969893
| 30> H 3.501013 -1.855297 1.392835
| 31> H 3.786435 -1.110113 -1.152806
| 32> H 3.047911 1.328119 -1.201132
| 33> H 2.568224 1.837763 .448488
| 34> H 6.787289 3.259869 2.019652
| 35> H 4.897361 .698160 3.178443
| 36> H .452161 -2.203590 .230329
| 37> H 1.015573 .572017 2.059484
| 38> H .675860 -.765184 -1.752175
| 39> H .377857 1.828427 -.721721
| 40> H -1.626911 .444861 -.127419
| 41> H -1.164253 .896988 -2.488943
| 42> H -1.733186 -1.777319 .484046
| 43> H -1.173969 -2.832105 -2.026578
| 44> H -3.459294 -2.927195 -.735096
| 45> H -2.819215 -1.257046 -2.893669
| 46> H -3.949813 .055000 -1.204651
| 47> H -5.180239 -1.202622 -.981954
| 48> H -5.292430 -.001565 3.210575
| 49> H -3.841514 2.565397 .999957
| 50> *
| 51> 
| 52>                          ****END OF INPUT****
================================================================================

                       *****************************
                       * Geometry Optimization Run *
                       *****************************

Geometry optimization settings:
Update method            Update   .... BFGS
Choice of coordinates    CoordSys .... Z-matrix Internals
Initial Hessian          InHess   .... Almoef's Model

Convergence Tolerances:
Energy Change            TolE     ....  5.0000e-06 Eh
Max. Gradient            TolMAXG  ....  3.0000e-04 Eh/bohr
RMS Gradient             TolRMSG  ....  1.0000e-04 Eh/bohr
Max. Displacement        TolMAXD  ....  4.0000e-03 bohr
RMS Displacement         TolRMSD  ....  2.0000e-03 bohr
Strict Convergence                ....  False
------------------------------------------------------------------------------
                        ORCA OPTIMIZATION COORDINATE SETUP
------------------------------------------------------------------------------

The optimization will be done in new redundant internal coordinates
Making redundant internal coordinates   ...  (new redundants) done
Evaluating the initial hessian          ...  (Almloef) done
Evaluating the coordinates              ...  done
Calculating the B-matrix                .... done
Calculating the G-matrix                .... done
Diagonalizing the G-matrix              .... done
Small eigenvalue found = 1.793e-03
Small eigenvalue found = 3.315e-03
Small eigenvalue found = 5.032e-03
Small eigenvalue found = 7.152e-03
Small eigenvalue found = 1.253e-02
Small eigenvalue found = 1.534e-02
Small eigenvalue found = 2.141e-02
Small eigenvalue found = 2.436e-02
The first mode is                       ....  101
The number of degrees of freedom        ....  135

    -----------------------------------------------------------------
                    Redundant Internal Coordinates


    -----------------------------------------------------------------
         Definition                    Initial Value    Approx d2E/dq
    -----------------------------------------------------------------
      1. B(C   1,O   0)                  1.2023         1.114993   
      2. B(C   2,C   1)                  1.5136         0.396827   
      3. B(O   3,C   2)                  1.4036         0.532395   
      4. B(C   4,C   2)                  1.5360         0.365420   
      5. B(O   5,C   4)                  1.4180         0.504830   
      6. B(P   6,O   5)                  1.5918         0.896191   
      7. B(O   7,P   6)                  1.4628         1.439305   
      8. B(O   8,P   6)                  1.5891         0.905224   
      9. B(O   9,P   6)                  1.6023         0.862264   
     10. B(C  10,C   2)                  1.5877         0.302242   
     11. B(O  11,C  10)                  1.3943         0.550858   
     12. B(O  12,C  10)                  1.3835         0.573031   
     13. B(C  13,C  10)                  1.5415         0.358117   
     14. B(O  14,C  13)                  1.4066         0.526509   
     15. B(C  15,C  13)                  1.5482         0.349473   
     16. B(O  16,C  15)                  1.4181         0.504650   
     17. B(C  17,C  15)                  1.5466         0.351494   
     18. B(O  18,C  17)                  1.4112         0.517695   
     19. B(C  19,C  17)                  1.5455         0.352885   
     20. B(O  20,C  19)                  1.4016         0.536275   
     21. B(C  21,C  19)                  1.5322         0.370585   
     22. B(O  22,C  21)                  1.4196         0.502006   
     23. B(P  23,O  22)                  1.5930         0.892210   
     24. B(O  24,P  23)                  1.4634         1.436449   
     25. B(O  25,P  23)                  1.5861         0.915232   
     26. B(O  26,P  23)                  1.5921         0.895123   
     27. B(H  27,C   1)                  1.1036         0.342612   
     28. B(H  28,O   3)                  0.9655         0.509614   
     29. B(H  29,C   4)                  1.0927         0.356527   
     30. B(H  30,C   4)                  1.0939         0.354999   
     31. B(H  31,O   8)                  1.4603         0.082763   
     32. B(H  32,O   9)                  0.9599         0.520084   
     33. B(H  33,O  11)                  0.9705         0.500270   
     34. B(H  34,O  12)                  0.9683         0.504314   
     35. B(H  35,C  13)                  1.0943         0.354477   
     36. B(H  36,O  14)                  0.9682         0.504536   
     37. B(H  37,C  15)                  1.0994         0.347897   
     38. B(H  38,O  16)                  0.9706         0.500015   
     39. B(H  39,C  17)                  1.0925         0.356760   
     40. B(H  40,O  18)                  0.9712         0.498921   
     41. B(H  41,C  19)                  1.0959         0.352372   
     42. B(H  42,O  20)                  0.9719         0.497804   
     43. B(H  43,C  21)                  1.0931         0.356049   
     44. B(H  44,C  21)                  1.0941         0.354730   
     45. B(H  45,O  25)                  0.9555         0.528529   
     46. B(H  46,O  26)                  0.9564         0.526963   
     47. A(O   0,C   1,C   2)          123.9478         0.442298   
     48. A(C   2,C   1,H  27)          113.9340         0.324884   
     49. A(O   0,C   1,H  27)          122.1030         0.384571   
     50. A(C   4,C   2,C  10)          113.0004         0.349201   
     51. A(C   1,C   2,C   4)          108.7829         0.365741   
     52. A(C   1,C   2,O   3)          111.0657         0.387867   
     53. A(O   3,C   2,C  10)          107.3458         0.370005   
     54. A(O   3,C   2,C   4)          112.3840         0.382341   
     55. A(C   1,C   2,C  10)          103.9627         0.354103   
     56. A(C   2,O   3,H  28)          108.3970         0.359357   
     57. A(O   5,C   4,H  29)          108.4240         0.338279   
     58. A(C   2,C   4,H  29)          109.6108         0.322618   
     59. A(H  29,C   4,H  30)          110.0725         0.289735   
     60. A(O   5,C   4,H  30)          109.0514         0.338037   
     61. A(C   2,C   4,H  30)          110.3979         0.322391   
     62. A(C   2,C   4,O   5)          109.2483         0.378832   
     63. A(C   4,O   5,P   6)          116.2888         0.471644   
     64. A(O   8,P   6,O   9)          103.1555         0.559388   
     65. A(O   7,P   6,O   9)          113.7794         0.611444   
     66. A(O   7,P   6,O   8)          117.8708         0.617225   
     67. A(O   5,P   6,O   9)          107.4206         0.558321   
     68. A(O   5,P   6,O   8)           95.8696         0.563515   
     69. A(O   5,P   6,O   7)          116.5521         0.616027   
     70. A(P   6,O   8,H  31)          101.2102         0.308530   
     71. A(P   6,O   9,H  32)          110.0463         0.418144   
     72. A(C   2,C  10,O  11)          106.8687         0.372182   
     73. A(O  12,C  10,C  13)          106.4464         0.385906   
     74. A(O  11,C  10,C  13)          113.5926         0.383266   
     75. A(C   2,C  10,C  13)          109.7592         0.348015   
     76. A(O  11,C  10,O  12)          109.7521         0.413608   
     77. A(C   2,C  10,O  12)          110.4507         0.374722   
     78. A(C  10,O  11,H  33)          110.1766         0.360312   
     79. A(C  10,O  12,H  34)          109.8592         0.363245   
     80. A(C  10,C  13,H  35)          109.0860         0.321250   
     81. A(O  14,C  13,C  15)          107.3719         0.378664   
     82. A(C  10,C  13,C  15)          113.6324         0.356669   
     83. A(C  10,C  13,O  14)          110.1242         0.380270   
     84. A(C  15,C  13,H  35)          109.6696         0.319969   
     85. A(O  14,C  13,H  35)          106.7224         0.340334   
     86. A(C  13,O  14,H  36)          107.0666         0.358066   
     87. A(O  16,C  15,H  37)          109.4260         0.336880   
     88. A(C  13,C  15,H  37)          108.1520         0.318992   
     89. A(O  16,C  15,C  17)          110.7282         0.376272   
     90. A(C  13,C  15,C  17)          113.7082         0.355540   
     91. A(C  13,C  15,O  16)          106.5192         0.375897   
     92. A(C  17,C  15,H  37)          108.2230         0.319292   
     93. A(C  15,O  16,H  38)          106.1548         0.354954   
     94. A(O  18,C  17,H  39)          107.4152         0.339740   
     95. A(C  15,C  17,H  39)          107.7811         0.320607   
     96. A(O  18,C  17,C  19)          108.2001         0.378194   
     97. A(C  15,C  17,C  19)          112.7722         0.356127   
     98. A(C  15,C  17,O  18)          111.7080         0.377936   
     99. A(C  19,C  17,H  39)          108.7954         0.320814   
    100. A(C  17,O  18,H  40)          106.5959         0.356362   
    101. A(C  17,C  19,O  20)          109.9213         0.380512   
    102. A(C  21,C  19,H  41)          109.2040         0.322741   
    103. A(O  20,C  19,H  41)          105.8224         0.341042   
    104. A(O  20,C  19,C  21)          111.8303         0.383759   
    105. A(C  17,C  19,H  41)          107.4251         0.320166   
    106. A(C  17,C  19,C  21)          112.3313         0.359344   
    107. A(C  19,O  20,H  42)          106.6880         0.358368   
    108. A(C  19,C  21,H  44)          110.0144         0.323094   
    109. A(H  43,C  21,H  44)          108.3574         0.289640   
    110. A(O  22,C  21,H  44)          109.5065         0.337678   
    111. A(O  22,C  21,H  43)          110.5141         0.337887   
    112. A(C  19,C  21,H  43)          109.7034         0.323290   
    113. A(C  19,C  21,O  22)          108.7388         0.379386   
    114. A(C  21,O  22,P  23)          116.2806         0.470773   
    115. A(O  25,P  23,O  26)          103.2132         0.564568   
    116. A(O  24,P  23,O  26)          114.4403         0.615648   
    117. A(O  22,P  23,O  26)          103.2675         0.561834   
    118. A(O  24,P  23,O  25)          115.8348         0.618303   
    119. A(O  22,P  23,O  25)          101.4322         0.564218   
    120. A(O  22,P  23,O  24)          116.7069         0.615260   
    121. A(P  23,O  25,H  45)          110.2958         0.423833   
    122. A(P  23,O  26,H  46)          109.6428         0.421930   
    123. D(C  10,C   2,C   1,H  27)    105.5612         0.011695   
    124. D(C   4,C   2,C   1,H  27)   -133.7854         0.011695   
    125. D(O   3,C   2,C   1,H  27)     -9.5886         0.011695   
    126. D(O   3,C   2,C   1,O   0)    171.8080         0.011695   
    127. D(C  10,C   2,C   1,O   0)    -73.0421         0.011695   
    128. D(C   4,C   2,C   1,O   0)     47.6112         0.011695   
    129. D(H  28,O   3,C   2,C   1)    -74.9732         0.022518   
    130. D(H  28,O   3,C   2,C  10)    171.9978         0.022518   
    131. D(H  28,O   3,C   2,C   4)     47.1535         0.022518   
    132. D(O   5,C   4,C   2,O   3)    -82.9315         0.010691   
    133. D(H  29,C   4,C   2,C   1)    159.1522         0.010691   
    134. D(H  30,C   4,C   2,O   3)    157.1532         0.010691   
    135. D(O   5,C   4,C   2,C   1)     40.4808         0.010691   
    136. D(H  29,C   4,C   2,C  10)    -85.9350         0.010691   
    137. D(H  29,C   4,C   2,O   3)     35.7399         0.010691   
    138. D(H  30,C   4,C   2,C  10)     35.4783         0.010691   
    139. D(H  30,C   4,C   2,C   1)    -79.4345         0.010691   
    140. D(O   5,C   4,C   2,C  10)    155.3935         0.010691   
    141. D(P   6,O   5,C   4,H  30)      9.1861         0.020161   
    142. D(P   6,O   5,C   4,H  29)    129.0374         0.020161   
    143. D(P   6,O   5,C   4,C   2)   -111.5544         0.020161   
    144. D(O   8,P   6,O   5,C   4)   -132.2019         0.013864   
    145. D(O   9,P   6,O   5,C   4)    122.0118         0.013864   
    146. D(O   7,P   6,O   5,C   4)     -6.9813         0.013864   
    147. D(H  31,O   8,P   6,O   9)    -50.4826         0.014134   
    148. D(H  31,O   8,P   6,O   7)     75.8179         0.014134   
    149. D(H  31,O   8,P   6,O   5)   -159.9397         0.014134   
    150. D(H  32,O   9,P   6,O   8)    167.7159         0.012881   
    151. D(H  32,O   9,P   6,O   7)     38.8424         0.012881   
    152. D(H  32,O   9,P   6,O   5)    -91.7158         0.012881   
    153. D(O  11,C  10,C   2,C   1)    -46.2786         0.007596   
    154. D(C  13,C  10,C   2,O   3)    -52.1187         0.007596   
    155. D(C  13,C  10,C   2,C   1)   -169.8734         0.007596   
    156. D(O  12,C  10,C   2,C   4)    -44.7135         0.007596   
    157. D(O  12,C  10,C   2,O   3)   -169.1849         0.007596   
    158. D(O  12,C  10,C   2,C   1)     73.0604         0.007596   
    159. D(O  11,C  10,C   2,C   4)   -164.0525         0.007596   
    160. D(C  13,C  10,C   2,C   4)     72.3527         0.007596   
    161. D(O  11,C  10,C   2,O   3)     71.4762         0.007596   
    162. D(H  33,O  11,C  10,C  13)     28.6201         0.024190   
    163. D(H  33,O  11,C  10,O  12)    147.6376         0.024190   
    164. D(H  33,O  11,C  10,C   2)    -92.5727         0.024190   
    165. D(H  34,O  12,C  10,O  11)     55.1144         0.026296   
    166. D(H  34,O  12,C  10,C  13)    178.4397         0.026296   
    167. D(H  34,O  12,C  10,C   2)    -62.4639         0.026296   
    168. D(H  35,C  13,C  10,O  12)    170.7535         0.010297   
    169. D(H  35,C  13,C  10,O  11)    -68.3539         0.010297   
    170. D(H  35,C  13,C  10,C   2)     51.2065         0.010297   
    171. D(C  15,C  13,C  10,O  11)     54.3419         0.010297   
    172. D(C  15,C  13,C  10,C   2)    173.9023         0.010297   
    173. D(O  14,C  13,C  10,O  12)     53.9421         0.010297   
    174. D(O  14,C  13,C  10,O  11)    174.8347         0.010297   
    175. D(O  14,C  13,C  10,C   2)    -65.6049         0.010297   
    176. D(C  15,C  13,C  10,O  12)    -66.5507         0.010297   
    177. D(H  36,O  14,C  13,H  35)   -168.3513         0.022001   
    178. D(H  36,O  14,C  13,C  15)     74.1166         0.022001   
    179. D(H  36,O  14,C  13,C  10)    -50.0755         0.022001   
    180. D(C  17,C  15,C  13,O  14)    172.7326         0.009842   
    181. D(C  17,C  15,C  13,C  10)    -65.2357         0.009842   
    182. D(O  16,C  15,C  13,H  35)    -65.0999         0.009842   
    183. D(O  16,C  15,C  13,O  14)     50.4943         0.009842   
    184. D(C  17,C  15,C  13,H  35)     57.1384         0.009842   
    185. D(O  16,C  15,C  13,C  10)    172.5260         0.009842   
    186. D(H  37,C  15,C  13,H  35)    177.3638         0.009842   
    187. D(H  37,C  15,C  13,O  14)    -67.0420         0.009842   
    188. D(H  37,C  15,C  13,C  10)     54.9897         0.009842   
    189. D(H  38,O  16,C  15,H  37)     85.0394         0.020146   
    190. D(H  38,O  16,C  15,C  17)   -155.7513         0.020146   
    191. D(H  38,O  16,C  15,C  13)    -31.6504         0.020146   
    192. D(H  39,C  17,C  15,H  37)    -34.2598         0.009947   
    193. D(H  39,C  17,C  15,O  16)   -154.1920         0.009947   
    194. D(H  39,C  17,C  15,C  13)     85.9255         0.009947   
    195. D(C  19,C  17,C  15,H  37)     85.8451         0.009947   
    196. D(C  19,C  17,C  15,O  16)    -34.0871         0.009947   
    197. D(C  19,C  17,C  15,C  13)   -153.9696         0.009947   
    198. D(O  18,C  17,C  15,H  37)   -152.0331         0.009947   
    199. D(O  18,C  17,C  15,O  16)     88.0348         0.009947   
    200. D(O  18,C  17,C  15,C  13)    -31.8478         0.009947   
    201. D(H  40,O  18,C  17,H  39)    151.9654         0.021241   
    202. D(H  40,O  18,C  17,C  19)     34.6697         0.021241   
    203. D(H  40,O  18,C  17,C  15)    -90.0420         0.021241   
    204. D(H  41,C  19,C  17,H  39)    -52.0956         0.010020   
    205. D(H  41,C  19,C  17,O  18)     64.3086         0.010020   
    206. D(H  41,C  19,C  17,C  15)   -171.6154         0.010020   
    207. D(C  21,C  19,C  17,H  39)     68.0124         0.010020   
    208. D(C  21,C  19,C  17,O  18)   -175.5835         0.010020   
    209. D(C  21,C  19,C  17,C  15)    -51.5075         0.010020   
    210. D(O  20,C  19,C  17,H  39)   -166.7855         0.010020   
    211. D(O  20,C  19,C  17,O  18)    -50.3814         0.010020   
    212. D(O  20,C  19,C  17,C  15)     73.6946         0.010020   
    213. D(H  42,O  20,C  19,H  41)   -177.9995         0.022863   
    214. D(H  42,O  20,C  19,C  21)     63.1961         0.022863   
    215. D(H  42,O  20,C  19,C  17)    -62.2925         0.022863   
    216. D(H  44,C  21,C  19,H  41)    -53.3218         0.010976   
    217. D(H  44,C  21,C  19,O  20)     63.4576         0.010976   
    218. D(H  44,C  21,C  19,C  17)   -172.3928         0.010976   
    219. D(H  43,C  21,C  19,H  41)   -172.4312         0.010976   
    220. D(H  43,C  21,C  19,O  20)    -55.6518         0.010976   
    221. D(H  43,C  21,C  19,C  17)     68.4978         0.010976   
    222. D(O  22,C  21,C  19,H  41)     66.6011         0.010976   
    223. D(O  22,C  21,C  19,O  20)   -176.6194         0.010976   
    224. D(O  22,C  21,C  19,C  17)    -52.4698         0.010976   
    225. D(P  23,O  22,C  21,H  44)    -80.9469         0.019928   
    226. D(P  23,O  22,C  21,H  43)     38.3469         0.019928   
    227. D(P  23,O  22,C  21,C  19)    158.8151         0.019928   
    228. D(O  26,P  23,O  22,C  21)    -77.1402         0.013747   
    229. D(O  25,P  23,O  22,C  21)    176.1646         0.013747   
    230. D(O  24,P  23,O  22,C  21)     49.3355         0.013747   
    231. D(H  45,O  25,P  23,O  26)    162.9918         0.014436   
    232. D(H  45,O  25,P  23,O  24)     37.1275         0.014436   
    233. D(H  45,O  25,P  23,O  22)    -90.2705         0.014436   
    234. D(H  46,O  26,P  23,O  25)    -94.3474         0.013833   
    235. D(H  46,O  26,P  23,O  24)     32.4075         0.013833   
    236. D(H  46,O  26,P  23,O  22)    160.3128         0.013833   
    -----------------------------------------------------------------

Number of atoms                         .... 47
Number of degrees of freedom            .... 236

         *************************************************************
         *                GEOMETRY OPTIMIZATION CYCLE   1            *
         *************************************************************
---------------------------------
CARTESIAN COORDINATES (ANGSTROEM)
---------------------------------
  O     3.134196   -0.178322    2.454408
  C     3.121906   -0.819875    1.437607
  C     2.566117   -0.312162    0.124519
  O     2.853319   -1.201686   -0.922503
  C     3.120896    1.096306   -0.135787
  O     4.487880    1.136953    0.239087
  P     4.843949    2.025100    1.511194
  O     3.759315    2.832584    2.069270
  O     6.067404    2.785997    0.840853
  O     5.552918    1.066903    2.581999
  C     0.993501   -0.329068    0.342043
  O     0.678089   -1.558444    0.919260
  O     0.611498    0.696598    1.188372
  C     0.278991   -0.076278   -1.000270
  O     0.554832    1.224899   -1.457816
  C    -1.260272   -0.221782   -0.921024
  O    -1.770933    0.208772   -2.172004
  C    -1.733412   -1.659261   -0.602093
  O    -0.854627   -2.627748   -1.132392
  C    -3.154134   -1.953418   -1.134652
  O    -3.120016   -2.105553   -2.527541
  C    -4.169562   -0.890606   -0.702293
  O    -4.094465   -0.734590    0.706671
  P    -4.654736    0.635492    1.295465
  O    -5.983378    1.050827    0.844134
  O    -4.498683    0.394477    2.855343
  O    -3.493629    1.675066    0.969893
  H     3.501013   -1.855297    1.392835
  H     3.786435   -1.110113   -1.152806
  H     3.047911    1.328119   -1.201132
  H     2.568224    1.837763    0.448488
  H     6.787289    3.259869    2.019652
  H     4.897361    0.698160    3.178443
  H     0.452161   -2.203590    0.230329
  H     1.015573    0.572017    2.059484
  H     0.675860   -0.765184   -1.752175
  H     0.377857    1.828427   -0.721721
  H    -1.626911    0.444861   -0.127419
  H    -1.164253    0.896988   -2.488943
  H    -1.733186   -1.777319    0.484046
  H    -1.173969   -2.832105   -2.026578
  H    -3.459294   -2.927195   -0.735096
  H    -2.819215   -1.257046   -2.893669
  H    -3.949813    0.055000   -1.204651
  H    -5.180239   -1.202622   -0.981954
  H    -5.292430   -0.001565    3.210575
  H    -3.841514    2.565397    0.999957

----------------------------
CARTESIAN COORDINATES (A.U.)
----------------------------
  NO LB    ZA    FRAG    MASS        X           Y           Z
   0 O   8.0000    0    15.999    5.922772   -0.336980    4.638159
   1 C   6.0000    0    12.011    5.899547   -1.549339    2.716684
   2 C   6.0000    0    12.011    4.849258   -0.589901    0.235307
   3 O   8.0000    0    15.999    5.391991   -2.270857   -1.743278
   4 C   6.0000    0    12.011    5.897639    2.071718   -0.256600
   5 O   8.0000    0    15.999    8.480864    2.148530    0.451809
   6 P  15.0000    0    30.974    9.153737    3.826884    2.855743
   7 O   8.0000    0    15.999    7.104076    5.352808    3.910354
   8 O   8.0000    0    15.999   11.465732    5.264771    1.588982
   9 O   8.0000    0    15.999   10.493494    2.016154    4.879271
  10 C   6.0000    0    12.011    1.877445   -0.621848    0.646368
  11 O   8.0000    0    15.999    1.281403   -2.945032    1.737150
  12 O   8.0000    0    15.999    1.155564    1.316379    2.245698
  13 C   6.0000    0    12.011    0.527217   -0.144145   -1.890236
  14 O   8.0000    0    15.999    1.048481    2.314724   -2.754873
  15 C   6.0000    0    12.011   -2.381569   -0.419107   -1.740483
  16 O   8.0000    0    15.999   -3.346578    0.394522   -4.104493
  17 C   6.0000    0    12.011   -3.275674   -3.135549   -1.137791
  18 O   8.0000    0    15.999   -1.615011   -4.965724   -2.139911
  19 C   6.0000    0    12.011   -5.960449   -3.691425   -2.144182
  20 O   8.0000    0    15.999   -5.895976   -3.978919   -4.776360
  21 C   6.0000    0    12.011   -7.879330   -1.683001   -1.327141
  22 O   8.0000    0    15.999   -7.737418   -1.388174    1.335415
  23 P  15.0000    0    30.974   -8.796176    1.200906    2.448074
  24 O   8.0000    0    15.999  -11.306946    1.985775    1.595182
  25 O   8.0000    0    15.999   -8.501279    0.745453    5.395816
  26 O   8.0000    0    15.999   -6.602002    3.165416    1.832832
  27 H   1.0000    0     1.008    6.615956   -3.506003    2.632077
  28 H   1.0000    0     1.008    7.155325   -2.097810   -2.178488
  29 H   1.0000    0     1.008    5.759717    2.509781   -2.269811
  30 H   1.0000    0     1.008    4.853240    3.472869    0.847519
  31 H   1.0000    0     1.008   12.826117    6.160260    3.816589
  32 H   1.0000    0     1.008    9.254671    1.319331    6.006387
  33 H   1.0000    0     1.008    0.854460   -4.164182    0.435259
  34 H   1.0000    0     1.008    1.919155    1.080955    3.891861
  35 H   1.0000    0     1.008    1.277190   -1.445988   -3.311131
  36 H   1.0000    0     1.008    0.714046    3.455226   -1.363855
  37 H   1.0000    0     1.008   -3.074416    0.840665   -0.240787
  38 H   1.0000    0     1.008   -2.200119    1.695062   -4.703421
  39 H   1.0000    0     1.008   -3.275247   -3.358646    0.914714
  40 H   1.0000    0     1.008   -2.218480   -5.351903   -3.829677
  41 H   1.0000    0     1.008   -6.537118   -5.531597   -1.389130
  42 H   1.0000    0     1.008   -5.327544   -2.375473   -5.468242
  43 H   1.0000    0     1.008   -7.464065    0.103935   -2.276460
  44 H   1.0000    0     1.008   -9.789233   -2.272626   -1.855624
  45 H   1.0000    0     1.008  -10.001243   -0.002957    6.067107
  46 H   1.0000    0     1.008   -7.259409    4.847898    1.889645

      -----------------------------------------------------------      
     |                   =====================                   |     
     |                           x T B                           |     
     |                   =====================                   |     
     |                         S. Grimme                         |     
     |          Mulliken Center for Theoretical Chemistry        |     
     |                    University of Bonn                     |     
      -----------------------------------------------------------      

   * xtb version 6.5.1 (579679a) compiled by 'ehlert@majestix' on 2022-07-11

   xtb is free software: you can redistribute it and/or modify it under
   the terms of the GNU Lesser General Public License as published by
   the Free Software Foundation, either version 3 of the License, or
   (at your option) any later version.
   
   xtb is distributed in the hope that it will be useful,
   but WITHOUT ANY WARRANTY; without even the implied warranty of
   MERCHANTABILITY or FITNESS FOR A PARTICULAR PURPOSE.  See the
   GNU Lesser General Public License for more details.
   
   Cite this work as:
   * C. Bannwarth, E. Caldeweyher, S. Ehlert, A. Hansen, P. Pracht,
     J. Seibert, S. Spicher, S. Grimme, WIREs Comput. Mol. Sci., 2020, 11,
     e01493. DOI: 10.1002/wcms.1493
   
   for GFN2-xTB:
   * C. Bannwarth, S. Ehlert and S. Grimme., J. Chem. Theory Comput., 2019,
     15, 1652-1671. DOI: 10.1021/acs.jctc.8b01176
   for GFN1-xTB:
   * S. Grimme, C. Bannwarth, P. Shushkov, J. Chem. Theory Comput., 2017,
     13, 1989-2009. DOI: 10.1021/acs.jctc.7b00118
   for GFN0-xTB:
   * P. Pracht, E. Caldeweyher, S. Ehlert, S. Grimme, ChemRxiv, 2019, preprint.
     DOI: 10.26434/chemrxiv.8326202.v1
   for GFN-FF:
   * S. Spicher and S. Grimme, Angew. Chem. Int. Ed., 2020, 59, 15665-15673.
     DOI: 10.1002/anie.202004239
   
   for ALPB and GBSA implicit solvation:
   * S. Ehlert, M. Stahn, S. Spicher, S. Grimme, J. Chem. Theory Comput.,
     2021, 17, 4250-4261. DOI: 10.1021/acs.jctc.1c00471
   
   for DFT-D4:
   * E. Caldeweyher, C. Bannwarth and S. Grimme, J. Chem. Phys., 2017,
     147, 034112. DOI: 10.1063/1.4993215
   * E. Caldeweyher, S. Ehlert, A. Hansen, H. Neugebauer, S. Spicher,
     C. Bannwarth and S. Grimme, J. Chem. Phys., 2019, 150, 154122.
     DOI: 10.1063/1.5090222
   * E. Caldeweyher, J.-M. Mewes, S. Ehlert and S. Grimme, Phys. Chem. Chem. Phys.
     2020, 22, 8499-8512. DOI: 10.1039/D0CP00502A
   
   for sTDA-xTB:
   * S. Grimme and C. Bannwarth, J. Chem. Phys., 2016, 145, 054103.
     DOI: 10.1063/1.4959605
   
   in the mass-spec context:
   * V. Asgeirsson, C. Bauer and S. Grimme, Chem. Sci., 2017, 8, 4879.
     DOI: 10.1039/c7sc00601b
   * J. Koopman and S. Grimme, ACS Omega 2019, 4, 12, 15120-15133.
     DOI: 10.1021/acsomega.9b02011
   
   for metadynamics refer to:
   * S. Grimme, J. Chem. Theory Comput., 2019, 155, 2847-2862
     DOI: 10.1021/acs.jctc.9b00143
   
   for SPH calculations refer to:
   * S. Spicher and S. Grimme, J. Chem. Theory Comput., 2021, 17, 1701-1714
     DOI: 10.1021/acs.jctc.0c01306
   
   with help from (in alphabetical order)
   P. Atkinson, C. Bannwarth, F. Bohle, G. Brandenburg, E. Caldeweyher
   M. Checinski, S. Dohm, S. Ehlert, S. Ehrlich, I. Gerasimov, C. Hölzer
   A. Katbashev, J. Koopman, C. Lavigne, S. Lehtola, F. März, M. Müller,
   F. Musil, H. Neugebauer, J. Pisarek, C. Plett, P. Pracht, F. Pultar,
   J. Seibert, P. Shushkov, S. Spicher, M. Stahn, M. Steiner, T. Strunk,
   J. Stückrath, T. Rose, and J. Unsleber
   
 * started run on 2023/12/07 at 09:51:30.798     

           -------------------------------------------------
          |                Calculation Setup                |
           -------------------------------------------------

          program call               : otool_xtb /tmp/28_XTB.xyz --grad -c 0 -u 0 -P 1 --namespace /tmp/28 --input /tmp/28_XTB.input.tmp --acc 1.000000
          calculation namespace      : /tmp/28
          coordinate file            : /tmp/28_XTB.xyz
          omp threads                :                     1

   ID    Z sym.   atoms
    1    8 O      1, 4, 6, 8-10, 12, 13, 15, 17, 19, 21, 23, 25-27
    2    6 C      2, 3, 5, 11, 14, 16, 18, 20, 22
    3   15 P      7, 24
    4    1 H      28-47

molecular fragmentation (1/2 indicates fragments):
11111111111111111111111111111112111111111111111
# atoms in fragment 1/2:    46     1
 fragment masses (1/2) :      445.19        1.01
CMA distance (Bohr)    :  14.196
constraining FC (au)   :  0.0500

           -------------------------------------------------
          |                 G F N 2 - x T B                 |
           -------------------------------------------------

        Reference                      10.1021/acs.jctc.8b01176
      * Hamiltonian:
        H0-scaling (s, p, d)           1.850000    2.230000    2.230000
        zeta-weighting                 0.500000
      * Dispersion:
        s8                             2.700000
        a1                             0.520000
        a2                             5.000000
        s9                             5.000000
      * Repulsion:
        kExp                           1.500000    1.000000
        rExp                           1.000000
      * Coulomb:
        alpha                          2.000000
        third order                    shell-resolved
        anisotropic                    true
        a3                             3.000000
        a5                             4.000000
        cn-shift                       1.200000
        cn-exp                         4.000000
        max-rad                        5.000000

q/qsh data taken from xtbrestart
CAMM data taken from xtbrestart

          ...................................................
          :                      SETUP                      :
          :.................................................:
          :  # basis functions                 140          :
          :  # atomic orbitals                 138          :
          :  # shells                           76          :
          :  # electrons                       162          :
          :  max. iterations                   250          :
          :  Hamiltonian                  GFN2-xTB          :
          :  restarted?                       true          :
          :  GBSA solvation                  false          :
          :  PC potential                    false          :
          :  electronic temp.          300.0000000     K    :
          :  accuracy                    1.0000000          :
          :  -> integral cutoff          0.2500000E+02      :
          :  -> integral neglect         0.1000000E-07      :
          :  -> SCF convergence          0.1000000E-05 Eh   :
          :  -> wf. convergence          0.1000000E-03 e    :
          :  Broyden damping             0.4000000          :
          ...................................................

 iter      E             dE          RMSdq      gap      omega  full diag
   1   -100.4163890 -0.100416E+03  0.930E-01    2.93       0.0  T
   2   -100.4195537 -0.316464E-02  0.333E-01    2.89       1.0  T
   3   -100.4197533 -0.199585E-03  0.226E-01    2.93       1.0  T
   4   -100.4198558 -0.102533E-03  0.360E-02    2.94       1.0  T
   5   -100.4198599 -0.405664E-05  0.181E-02    2.94       1.0  T
   6   -100.4198604 -0.580442E-06  0.807E-03    2.93       1.8  T
   7   -100.4198612 -0.762906E-06  0.417E-03    2.93       3.5  T
   8   -100.4198613 -0.946947E-07  0.516E-04    2.93      28.3  T
   9   -100.4198613 -0.186326E-08  0.280E-04    2.93      52.1  T

   *** convergence criteria satisfied after 9 iterations ***

         #    Occupation            Energy/Eh            Energy/eV
      -------------------------------------------------------------
         1        2.0000           -0.7522960             -20.4710
       ...           ...                  ...                  ...
        75        2.0000           -0.4421790             -12.0323
        76        2.0000           -0.4381813             -11.9235
        77        2.0000           -0.4371780             -11.8962
        78        2.0000           -0.4341782             -11.8146
        79        2.0000           -0.4261442             -11.5960
        80        2.0000           -0.4189304             -11.3997
        81        2.0000           -0.4140409             -11.2666 (HOMO)
        82                         -0.3062346              -8.3331 (LUMO)
        83                         -0.3004240              -8.1750
        84                         -0.0675550              -1.8383
        85                         -0.0631340              -1.7180
        86                         -0.0322647              -0.8780
       ...                                ...                  ...
       138                          1.2161768              33.0939
      -------------------------------------------------------------
                  HL-Gap            0.1078063 Eh            2.9336 eV
             Fermi-level           -0.3601377 Eh           -9.7998 eV

 SCC (total)                   0 d,  0 h,  0 min,  0.084 sec
 SCC setup                      ...        0 min,  0.000 sec (  0.410%)
 Dispersion                     ...        0 min,  0.000 sec (  0.592%)
 classical contributions        ...        0 min,  0.000 sec (  0.143%)
 integral evaluation            ...        0 min,  0.012 sec ( 14.665%)
 iterations                     ...        0 min,  0.029 sec ( 34.761%)
 molecular gradient             ...        0 min,  0.041 sec ( 48.888%)
 printout                       ...        0 min,  0.000 sec (  0.514%)

         :::::::::::::::::::::::::::::::::::::::::::::::::::::
         ::                     SUMMARY                     ::
         :::::::::::::::::::::::::::::::::::::::::::::::::::::
         :: total energy             -99.789872119295 Eh    ::
         :: gradient norm              0.140685657347 Eh/a0 ::
         :: HOMO-LUMO gap              2.933559505037 eV    ::
         ::.................................................::
         :: SCC energy              -100.419861301095 Eh    ::
         :: -> isotropic ES            0.400723186813 Eh    ::
         :: -> anisotropic ES         -0.024241693595 Eh    ::
         :: -> anisotropic XC         -0.013428427078 Eh    ::
         :: -> dispersion             -0.052592493654 Eh    ::
         :: repulsion energy           0.629257792293 Eh    ::
         :: add. restraining           0.000000000000 Eh    ::
         :: total charge              -0.000000000000 e     ::
         :::::::::::::::::::::::::::::::::::::::::::::::::::::


Property printout bound to 'properties.out'

           -------------------------------------------------
          | TOTAL ENERGY              -99.789872119295 Eh   |
          | GRADIENT NORM               0.140685657347 Eh/α |
          | HOMO-LUMO GAP               2.933559505037 eV   |
           -------------------------------------------------

------------------------------------------------------------------------
 * finished run on 2023/12/07 at 09:51:30.902     
------------------------------------------------------------------------
 total:
 * wall-time:     0 d,  0 h,  0 min,  0.104 sec
 *  cpu-time:     0 d,  0 h,  0 min,  0.104 sec
 * ratio c/w:     1.004 speedup
 SCF:
 * wall-time:     0 d,  0 h,  0 min,  0.084 sec
 *  cpu-time:     0 d,  0 h,  0 min,  0.084 sec
 * ratio c/w:     0.998 speedup


-------------------------   --------------------
FINAL SINGLE POINT ENERGY       -99.789872119290
-------------------------   --------------------

------------------------------------------------------------------------------
                         ORCA GEOMETRY RELAXATION STEP
------------------------------------------------------------------------------

Reading the OPT-File                    .... done
Getting information on internals        .... done
Copying old internal coords+grads       .... done
Making the new internal coordinates     .... (new redundants).... done
Validating the new internal coordinates .... (new redundants).... done
Calculating the B-matrix                .... done
Calculating the G,G- and P matrices     .... done
Transforming gradient to internals      .... done
Projecting the internal gradient        .... done
Number of atoms                         ....  47
Number of internal coordinates          .... 236
Current Energy                          ....   -99.789872119 Eh
Current gradient norm                   ....     0.140685657 Eh/bohr
Maximum allowed component of the step   ....  0.300
Current trust radius                    ....  0.300
Evaluating the initial hessian          ....  (Almloef) done
Projecting the Hessian                  .... done
Forming the augmented Hessian           .... done
Diagonalizing the augmented Hessian     .... done
Last element of RFO vector              ....  0.836590582
Lowest eigenvalues of augmented Hessian:
 -0.062949557  0.007596005  0.009842295  0.009947323  0.010020076
Length of the computed step             ....  0.654834794
Warning: the length of the step is outside the trust region - taking restricted step instead
The input lambda is                     ....    -0.062950
   iter:   1  x=   -0.120549  g=    5.882159 f(x)=     0.338809
   iter:   2  x=   -0.180863  g=    2.163676 f(x)=     0.130500
   iter:   3  x=   -0.222507  g=    0.993010 f(x)=     0.041352
   iter:   4  x=   -0.235115  g=    0.639917 f(x)=     0.008068
   iter:   5  x=   -0.235949  g=    0.566864 f(x)=     0.000473
   iter:   6  x=   -0.235952  g=    0.562431 f(x)=     0.000002
   iter:   7  x=   -0.235952  g=    0.562414 f(x)=     0.000000
   iter:   8  x=   -0.235952  g=    0.562414 f(x)=     0.000000
The output lambda is                    ....    -0.235952 (8 iterations)
The final length of the internal step   ....  0.300000000
Converting the step to cartesian space:
 Initial RMS(Int)=    0.0195283366
Transforming coordinates:
 Iter   0:  RMS(Cart)=    0.0212338167 RMS(Int)=    0.0195276742
 Iter   1:  RMS(Cart)=    0.0000401798 RMS(Int)=    0.0000264137
 Iter   2:  RMS(Cart)=    0.0000044661 RMS(Int)=    0.0000018877
 Iter   3:  RMS(Cart)=    0.0000005506 RMS(Int)=    0.0000002203
 Iter   4:  RMS(Cart)=    0.0000000660 RMS(Int)=    0.0000000265
done
Storing new coordinates                 .... done

                                .--------------------.
          ----------------------|Geometry convergence|-------------------------
          Item                value                   Tolerance       Converged
          ---------------------------------------------------------------------
          RMS gradient        0.0063437140            0.0001000000      NO
          MAX gradient        0.0951791710            0.0003000000      NO
          RMS step            0.0195283366            0.0020000000      NO
          MAX step            0.2986340706            0.0040000000      NO
          ........................................................
          Max(Bonds)      0.1580      Max(Angles)    0.76
          Max(Dihed)        0.43      Max(Improp)    0.00
          ---------------------------------------------------------------------

The optimization has not yet converged - more geometry cycles are needed


    ---------------------------------------------------------------------------
                         Redundant Internal Coordinates
                            (Angstroem and degrees)

        Definition                    Value    dE/dq     Step     New-Value
    ----------------------------------------------------------------------------
     1. B(C   1,O   0)                1.2023  0.000425 -0.0002    1.2022   
     2. B(C   2,C   1)                1.5136 -0.000201  0.0002    1.5137   
     3. B(O   3,C   2)                1.4036 -0.000182  0.0001    1.4037   
     4. B(C   4,C   2)                1.5360  0.000233 -0.0002    1.5358   
     5. B(O   5,C   4)                1.4180  0.000363 -0.0003    1.4178   
     6. B(P   6,O   5)                1.5918 -0.011547  0.0054    1.5972   
     7. B(O   7,P   6)                1.4628 -0.000140  0.0000    1.4629   
     8. B(O   8,P   6)                1.5891  0.006241 -0.0029    1.5862   
     9. B(O   9,P   6)                1.6023  0.003006 -0.0014    1.6009   
    10. B(C  10,C   2)                1.5877  0.000274 -0.0003    1.5874   
    11. B(O  11,C  10)                1.3943 -0.000059  0.0000    1.3943   
    12. B(O  12,C  10)                1.3835  0.000016 -0.0000    1.3835   
    13. B(C  13,C  10)                1.5415  0.000065 -0.0001    1.5414   
    14. B(O  14,C  13)                1.4066 -0.000117  0.0001    1.4067   
    15. B(C  15,C  13)                1.5482  0.000018 -0.0000    1.5481   
    16. B(O  16,C  15)                1.4181 -0.000025  0.0000    1.4182   
    17. B(C  17,C  15)                1.5466  0.000195 -0.0002    1.5464   
    18. B(O  18,C  17)                1.4112 -0.000052  0.0000    1.4112   
    19. B(C  19,C  17)                1.5455  0.000155 -0.0001    1.5454   
    20. B(O  20,C  19)                1.4016 -0.000027  0.0000    1.4016   
    21. B(C  21,C  19)                1.5322  0.000031 -0.0000    1.5322   
    22. B(O  22,C  21)                1.4196  0.000009 -0.0000    1.4196   
    23. B(P  23,O  22)                1.5930 -0.000060  0.0000    1.5930   
    24. B(O  24,P  23)                1.4634 -0.000059  0.0000    1.4634   
    25. B(O  25,P  23)                1.5861  0.000067 -0.0000    1.5861   
    26. B(O  26,P  23)                1.5921 -0.000165  0.0001    1.5922   
    27. B(H  27,C   1)                1.1036 -0.000009  0.0000    1.1036   
    28. B(H  28,O   3)                0.9655  0.000046 -0.0000    0.9654   
    29. B(H  29,C   4)                1.0927 -0.000053  0.0000    1.0928   
    30. B(H  30,C   4)                1.0939 -0.000008  0.0000    1.0939   
    31. B(H  31,O   8)                1.4603  0.095179 -0.1580    1.3022   
    32. B(H  32,O   9)                0.9599  0.000375 -0.0003    0.9597   
    33. B(H  33,O  11)                0.9705  0.000041 -0.0000    0.9705   
    34. B(H  34,O  12)                0.9683 -0.000048  0.0000    0.9683   
    35. B(H  35,C  13)                1.0943  0.000014 -0.0000    1.0943   
    36. B(H  36,O  14)                0.9682 -0.000010  0.0000    0.9682   
    37. B(H  37,C  15)                1.0994 -0.000014  0.0000    1.0994   
    38. B(H  38,O  16)                0.9706  0.000042 -0.0000    0.9706   
    39. B(H  39,C  17)                1.0925 -0.000006  0.0000    1.0925   
    40. B(H  40,O  18)                0.9712 -0.000001  0.0000    0.9712   
    41. B(H  41,C  19)                1.0959  0.000003 -0.0000    1.0959   
    42. B(H  42,O  20)                0.9719  0.000015 -0.0000    0.9718   
    43. B(H  43,C  21)                1.0931 -0.000020  0.0000    1.0931   
    44. B(H  44,C  21)                1.0941  0.000001 -0.0000    1.0941   
    45. B(H  45,O  25)                0.9555  0.000008 -0.0000    0.9555   
    46. B(H  46,O  26)                0.9564  0.000008 -0.0000    0.9564   
    47. A(O   0,C   1,C   2)          123.95 -0.000142    0.01    123.96   
    48. A(C   2,C   1,H  27)          113.93  0.000093   -0.01    113.93   
    49. A(O   0,C   1,H  27)          122.10  0.000050   -0.00    122.10   
    50. A(C   4,C   2,C  10)          113.00  0.000276   -0.04    112.96   
    51. A(C   1,C   2,C   4)          108.78 -0.000038    0.00    108.79   
    52. A(C   1,C   2,O   3)          111.07  0.000059   -0.00    111.06   
    53. A(O   3,C   2,C  10)          107.35 -0.000103    0.01    107.36   
    54. A(O   3,C   2,C   4)          112.38 -0.000087    0.01    112.39   
    55. A(C   1,C   2,C  10)          103.96 -0.000104    0.01    103.97   
    56. A(C   2,O   3,H  28)          108.40 -0.000189    0.02    108.42   
    57. A(O   5,C   4,H  29)          108.42 -0.000021    0.01    108.43   
    58. A(C   2,C   4,H  29)          109.61  0.000045    0.00    109.61   
    59. A(H  29,C   4,H  30)          110.07 -0.000140    0.02    110.09   
    60. A(O   5,C   4,H  30)          109.05  0.000263   -0.03    109.02   
    61. A(C   2,C   4,H  30)          110.40  0.000163   -0.02    110.38   
    62. A(C   2,C   4,O   5)          109.25 -0.000314    0.03    109.28   
    63. A(C   4,O   5,P   6)          116.29 -0.002323    0.19    116.48   
    64. A(O   8,P   6,O   9)          103.16  0.005258   -0.38    102.77   
    65. A(O   7,P   6,O   9)          113.78 -0.003682    0.21    113.99   
    66. A(O   7,P   6,O   8)          117.87 -0.000221    0.06    117.93   
    67. A(O   5,P   6,O   9)          107.42  0.001404   -0.13    107.29   
    68. A(O   5,P   6,O   8)           95.87 -0.008750    0.76     96.63   
    69. A(O   5,P   6,O   7)          116.55  0.005674   -0.47    116.09   
    70. A(P   6,O   8,H  31)          101.21 -0.007082    0.75    101.96   
    71. A(P   6,O   9,H  32)          110.05  0.002499   -0.22    109.83   
    72. A(C   2,C  10,O  11)          106.87  0.000024   -0.00    106.87   
    73. A(O  12,C  10,C  13)          106.45  0.000027   -0.00    106.44   
    74. A(O  11,C  10,C  13)          113.59 -0.000084    0.01    113.61   
    75. A(C   2,C  10,C  13)          109.76  0.000012   -0.00    109.76   
    76. A(O  11,C  10,O  12)          109.75 -0.000037    0.01    109.76   
    77. A(C   2,C  10,O  12)          110.45  0.000060   -0.01    110.44   
    78. A(C  10,O  11,H  33)          110.18 -0.000035    0.00    110.18   
    79. A(C  10,O  12,H  34)          109.86  0.000108   -0.01    109.85   
    80. A(C  10,C  13,H  35)          109.09  0.000031   -0.00    109.08   
    81. A(O  14,C  13,C  15)          107.37  0.000055   -0.01    107.36   
    82. A(C  10,C  13,C  15)          113.63 -0.000083    0.01    113.64   
    83. A(C  10,C  13,O  14)          110.12  0.000078   -0.01    110.11   
    84. A(C  15,C  13,H  35)          109.67 -0.000043    0.01    109.68   
    85. A(O  14,C  13,H  35)          106.72 -0.000035    0.00    106.73   
    86. A(C  13,O  14,H  36)          107.07  0.000186   -0.02    107.05   
    87. A(O  16,C  15,H  37)          109.43 -0.000029    0.00    109.43   
    88. A(C  13,C  15,H  37)          108.15  0.000069   -0.01    108.15   
    89. A(O  16,C  15,C  17)          110.73  0.000139   -0.02    110.71   
    90. A(C  13,C  15,C  17)          113.71 -0.000149    0.02    113.73   
    91. A(C  13,C  15,O  16)          106.52 -0.000042    0.01    106.53   
    92. A(C  17,C  15,H  37)          108.22  0.000012   -0.00    108.22   
    93. A(C  15,O  16,H  38)          106.15 -0.000003    0.00    106.16   
    94. A(O  18,C  17,H  39)          107.42  0.000047   -0.00    107.41   
    95. A(C  15,C  17,H  39)          107.78 -0.000079    0.01    107.79   
    96. A(O  18,C  17,C  19)          108.20 -0.000078    0.01    108.21   
    97. A(C  15,C  17,C  19)          112.77  0.000263   -0.03    112.74   
    98. A(C  15,C  17,O  18)          111.71 -0.000097    0.01    111.72   
    99. A(C  19,C  17,H  39)          108.80 -0.000064    0.01    108.80   
   100. A(C  17,O  18,H  40)          106.60  0.000032   -0.00    106.59   
   101. A(C  17,C  19,O  20)          109.92  0.000032   -0.01    109.92   
   102. A(C  21,C  19,H  41)          109.20 -0.000022    0.00    109.21   
   103. A(O  20,C  19,H  41)          105.82 -0.000015    0.00    105.83   
   104. A(O  20,C  19,C  21)          111.83 -0.000029    0.00    111.83   
   105. A(C  17,C  19,H  41)          107.43 -0.000041    0.01    107.43   
   106. A(C  17,C  19,C  21)          112.33  0.000068   -0.01    112.32   
   107. A(C  19,O  20,H  42)          106.69  0.000026   -0.00    106.69   
   108. A(C  19,C  21,H  44)          110.01 -0.000012    0.00    110.02   
   109. A(H  43,C  21,H  44)          108.36  0.000015   -0.00    108.36   
   110. A(O  22,C  21,H  44)          109.51 -0.000017    0.00    109.51   
   111. A(O  22,C  21,H  43)          110.51  0.000012   -0.00    110.51   
   112. A(C  19,C  21,H  43)          109.70 -0.000019    0.00    109.71   
   113. A(C  19,C  21,O  22)          108.74  0.000021   -0.00    108.74   
   114. A(C  21,O  22,P  23)          116.28 -0.000010    0.00    116.28   
   115. A(O  25,P  23,O  26)          103.21  0.000005   -0.00    103.21   
   116. A(O  24,P  23,O  26)          114.44  0.000063   -0.01    114.43   
   117. A(O  22,P  23,O  26)          103.27 -0.000031    0.00    103.27   
   118. A(O  24,P  23,O  25)          115.83 -0.000053    0.00    115.84   
   119. A(O  22,P  23,O  25)          101.43  0.000020   -0.00    101.43   
   120. A(O  22,P  23,O  24)          116.71 -0.000007    0.00    116.71   
   121. A(P  23,O  25,H  45)          110.30  0.000073   -0.01    110.29   
   122. A(P  23,O  26,H  46)          109.64  0.000052   -0.00    109.64   
   123. D(C  10,C   2,C   1,H  27)    105.56 -0.000192    0.03    105.59   
   124. D(C   4,C   2,C   1,H  27)   -133.79  0.000055   -0.00   -133.79   
   125. D(O   3,C   2,C   1,H  27)     -9.59 -0.000042    0.01     -9.58   
   126. D(O   3,C   2,C   1,O   0)    171.81 -0.000044    0.01    171.82   
   127. D(C  10,C   2,C   1,O   0)    -73.04 -0.000193    0.03    -73.01   
   128. D(C   4,C   2,C   1,O   0)     47.61  0.000053   -0.00     47.61   
   129. D(H  28,O   3,C   2,C   1)    -74.97 -0.000092    0.02    -74.96   
   130. D(H  28,O   3,C   2,C  10)    172.00  0.000058   -0.00    172.00   
   131. D(H  28,O   3,C   2,C   4)     47.15 -0.000161    0.03     47.18   
   132. D(O   5,C   4,C   2,O   3)    -82.93  0.000192   -0.04    -82.97   
   133. D(H  29,C   4,C   2,C   1)    159.15 -0.000005   -0.00    159.15   
   134. D(H  30,C   4,C   2,O   3)    157.15 -0.000034    0.00    157.15   
   135. D(O   5,C   4,C   2,C   1)     40.48  0.000181   -0.03     40.45   
   136. D(H  29,C   4,C   2,C  10)    -85.94  0.000001   -0.00    -85.94   
   137. D(H  29,C   4,C   2,O   3)     35.74  0.000005   -0.01     35.73   
   138. D(H  30,C   4,C   2,C  10)     35.48 -0.000039    0.00     35.48   
   139. D(H  30,C   4,C   2,C   1)    -79.43 -0.000045    0.01    -79.43   
   140. D(O   5,C   4,C   2,C  10)    155.39  0.000187   -0.03    155.36   
   141. D(P   6,O   5,C   4,H  30)      9.19 -0.000009    0.00      9.19   
   142. D(P   6,O   5,C   4,H  29)    129.04 -0.000037    0.01    129.05   
   143. D(P   6,O   5,C   4,C   2)   -111.55 -0.000177    0.03   -111.52   
   144. D(O   8,P   6,O   5,C   4)   -132.20  0.003186   -0.43   -132.63   
   145. D(O   9,P   6,O   5,C   4)    122.01  0.000413   -0.26    121.75   
   146. D(O   7,P   6,O   5,C   4)     -6.98 -0.000354   -0.06     -7.04   
   147. D(H  31,O   8,P   6,O   9)    -50.48  0.000761   -0.13    -50.61   
   148. D(H  31,O   8,P   6,O   7)     75.82  0.000106   -0.12     75.70   
   149. D(H  31,O   8,P   6,O   5)   -159.94  0.000773   -0.13   -160.07   
   150. D(H  32,O   9,P   6,O   8)    167.72  0.002778   -0.23    167.49   
   151. D(H  32,O   9,P   6,O   7)     38.84  0.001506   -0.15     38.69   
   152. D(H  32,O   9,P   6,O   5)    -91.72 -0.004428    0.42    -91.30   
   153. D(O  11,C  10,C   2,C   1)    -46.28 -0.000013    0.00    -46.28   
   154. D(C  13,C  10,C   2,O   3)    -52.12  0.000038   -0.00    -52.12   
   155. D(C  13,C  10,C   2,C   1)   -169.87  0.000067   -0.01   -169.89   
   156. D(O  12,C  10,C   2,C   4)    -44.71 -0.000039    0.01    -44.71   
   157. D(O  12,C  10,C   2,O   3)   -169.18 -0.000039    0.01   -169.18   
   158. D(O  12,C  10,C   2,C   1)     73.06 -0.000010    0.00     73.06   
   159. D(O  11,C  10,C   2,C   4)   -164.05 -0.000043    0.01   -164.05   
   160. D(C  13,C  10,C   2,C   4)     72.35  0.000037   -0.01     72.35   
   161. D(O  11,C  10,C   2,O   3)     71.48 -0.000042    0.01     71.49   
   162. D(H  33,O  11,C  10,C  13)     28.62  0.000024   -0.00     28.62   
   163. D(H  33,O  11,C  10,O  12)    147.64 -0.000022    0.00    147.64   
   164. D(H  33,O  11,C  10,C   2)    -92.57  0.000044   -0.01    -92.58   
   165. D(H  34,O  12,C  10,O  11)     55.11  0.000030   -0.00     55.11   
   166. D(H  34,O  12,C  10,C  13)    178.44 -0.000077    0.01    178.45   
   167. D(H  34,O  12,C  10,C   2)    -62.46 -0.000013    0.00    -62.46   
   168. D(H  35,C  13,C  10,O  12)    170.75  0.000058   -0.01    170.75   
   169. D(H  35,C  13,C  10,O  11)    -68.35 -0.000021    0.01    -68.35   
   170. D(H  35,C  13,C  10,C   2)     51.21 -0.000037    0.01     51.22   
   171. D(C  15,C  13,C  10,O  11)     54.34 -0.000111    0.02     54.36   
   172. D(C  15,C  13,C  10,C   2)    173.90 -0.000127    0.02    173.93   
   173. D(O  14,C  13,C  10,O  12)     53.94  0.000037   -0.00     53.94   
   174. D(O  14,C  13,C  10,O  11)    174.83 -0.000041    0.01    174.84   
   175. D(O  14,C  13,C  10,C   2)    -65.60 -0.000057    0.01    -65.59   
   176. D(C  15,C  13,C  10,O  12)    -66.55 -0.000032    0.01    -66.54   
   177. D(H  36,O  14,C  13,H  35)   -168.35 -0.000002   -0.00   -168.35   
   178. D(H  36,O  14,C  13,C  15)     74.12  0.000037   -0.01     74.11   
   179. D(H  36,O  14,C  13,C  10)    -50.08  0.000056   -0.01    -50.08   
   180. D(C  17,C  15,C  13,O  14)    172.73 -0.000016    0.00    172.74   
   181. D(C  17,C  15,C  13,C  10)    -65.24  0.000068   -0.01    -65.25   
   182. D(O  16,C  15,C  13,H  35)    -65.10 -0.000034    0.00    -65.10   
   183. D(O  16,C  15,C  13,O  14)     50.49 -0.000068    0.01     50.50   
   184. D(C  17,C  15,C  13,H  35)     57.14  0.000018   -0.00     57.14   
   185. D(O  16,C  15,C  13,C  10)    172.53  0.000016   -0.01    172.52   
   186. D(H  37,C  15,C  13,H  35)    177.36 -0.000013    0.00    177.37   
   187. D(H  37,C  15,C  13,O  14)    -67.04 -0.000047    0.01    -67.03   
   188. D(H  37,C  15,C  13,C  10)     54.99  0.000037   -0.01     54.98   
   189. D(H  38,O  16,C  15,H  37)     85.04 -0.000011    0.00     85.04   
   190. D(H  38,O  16,C  15,C  17)   -155.75  0.000072   -0.01   -155.76   
   191. D(H  38,O  16,C  15,C  13)    -31.65 -0.000054    0.01    -31.64   
   192. D(H  39,C  17,C  15,H  37)    -34.26 -0.000003    0.00    -34.26   
   193. D(H  39,C  17,C  15,O  16)   -154.19 -0.000058    0.01   -154.18   
   194. D(H  39,C  17,C  15,C  13)     85.93 -0.000002    0.00     85.93   
   195. D(C  19,C  17,C  15,H  37)     85.85  0.000026   -0.00     85.84   
   196. D(C  19,C  17,C  15,O  16)    -34.09 -0.000029    0.00    -34.08   
   197. D(C  19,C  17,C  15,C  13)   -153.97  0.000027   -0.00   -153.97   
   198. D(O  18,C  17,C  15,H  37)   -152.03  0.000044   -0.01   -152.04   
   199. D(O  18,C  17,C  15,O  16)     88.03 -0.000011   -0.00     88.03   
   200. D(O  18,C  17,C  15,C  13)    -31.85  0.000045   -0.01    -31.86   
   201. D(H  40,O  18,C  17,H  39)    151.97  0.000012   -0.00    151.96   
   202. D(H  40,O  18,C  17,C  19)     34.67  0.000103   -0.01     34.66   
   203. D(H  40,O  18,C  17,C  15)    -90.04 -0.000110    0.01    -90.03   
   204. D(H  41,C  19,C  17,H  39)    -52.10  0.000009   -0.00    -52.10   
   205. D(H  41,C  19,C  17,O  18)     64.31 -0.000012    0.00     64.31   
   206. D(H  41,C  19,C  17,C  15)   -171.62 -0.000015    0.00   -171.61   
   207. D(C  21,C  19,C  17,H  39)     68.01 -0.000003    0.00     68.01   
   208. D(C  21,C  19,C  17,O  18)   -175.58 -0.000024    0.01   -175.58   
   209. D(C  21,C  19,C  17,C  15)    -51.51 -0.000027    0.00    -51.50   
   210. D(O  20,C  19,C  17,H  39)   -166.79  0.000032   -0.01   -166.79   
   211. D(O  20,C  19,C  17,O  18)    -50.38  0.000011   -0.00    -50.38   
   212. D(O  20,C  19,C  17,C  15)     73.69  0.000009   -0.00     73.69   
   213. D(H  42,O  20,C  19,H  41)   -178.00  0.000006   -0.00   -178.00   
   214. D(H  42,O  20,C  19,C  21)     63.20  0.000057   -0.01     63.19   
   215. D(H  42,O  20,C  19,C  17)    -62.29 -0.000035    0.00    -62.29   
   216. D(H  44,C  21,C  19,H  41)    -53.32  0.000017   -0.00    -53.32   
   217. D(H  44,C  21,C  19,O  20)     63.46 -0.000033    0.01     63.46   
   218. D(H  44,C  21,C  19,C  17)   -172.39  0.000039   -0.01   -172.40   
   219. D(H  43,C  21,C  19,H  41)   -172.43  0.000018   -0.00   -172.43   
   220. D(H  43,C  21,C  19,O  20)    -55.65 -0.000031    0.01    -55.65   
   221. D(H  43,C  21,C  19,C  17)     68.50  0.000040   -0.01     68.49   
   222. D(O  22,C  21,C  19,H  41)     66.60  0.000001   -0.00     66.60   
   223. D(O  22,C  21,C  19,O  20)   -176.62 -0.000048    0.01   -176.61   
   224. D(O  22,C  21,C  19,C  17)    -52.47  0.000024   -0.00    -52.47   
   225. D(P  23,O  22,C  21,H  44)    -80.95  0.000023   -0.01    -80.95   
   226. D(P  23,O  22,C  21,H  43)     38.35  0.000038   -0.01     38.34   
   227. D(P  23,O  22,C  21,C  19)    158.82  0.000035   -0.01    158.81   
   228. D(O  26,P  23,O  22,C  21)    -77.14  0.000003   -0.00    -77.14   
   229. D(O  25,P  23,O  22,C  21)    176.16 -0.000000   -0.00    176.16   
   230. D(O  24,P  23,O  22,C  21)     49.34  0.000056   -0.01     49.33   
   231. D(H  45,O  25,P  23,O  26)    162.99  0.000035   -0.00    162.99   
   232. D(H  45,O  25,P  23,O  24)     37.13 -0.000016    0.00     37.13   
   233. D(H  45,O  25,P  23,O  22)    -90.27  0.000010   -0.00    -90.27   
   234. D(H  46,O  26,P  23,O  25)    -94.35  0.000028   -0.00    -94.35   
   235. D(H  46,O  26,P  23,O  24)     32.41  0.000005   -0.00     32.40   
   236. D(H  46,O  26,P  23,O  22)    160.31  0.000014   -0.00    160.31   
    ----------------------------------------------------------------------------

         *************************************************************
         *                GEOMETRY OPTIMIZATION CYCLE   2            *
         *************************************************************
---------------------------------
CARTESIAN COORDINATES (ANGSTROEM)
---------------------------------
  O     3.134513   -0.178827    2.457556
  C     3.123288   -0.819336    1.440282
  C     2.567382   -0.311233    0.127200
  O     2.855902   -1.199878   -0.920373
  C     3.120452    1.097918   -0.131835
  O     4.486827    1.140858    0.244021
  P     4.846482    2.030197    1.521042
  O     3.755847    2.833794    2.073116
  O     6.076677    2.792963    0.872364
  O     5.550283    1.067015    2.588613
  C     0.994952   -0.329216    0.344017
  O     0.680093   -1.559139    0.920464
  O     0.612215    0.695830    1.190748
  C     0.280948   -0.075830   -0.998386
  O     0.556660    1.225874   -1.454759
  C    -1.258318   -0.221632   -0.920052
  O    -1.768529    0.209638   -2.170989
  C    -1.731782   -1.659116   -0.602484
  O    -0.853036   -2.627542   -1.133058
  C    -3.152178   -1.951901   -1.136263
  O    -3.117062   -2.102637   -2.529297
  C    -4.167069   -0.888744   -0.703590
  O    -4.092785   -0.734167    0.705569
  P    -4.652213    0.635869    1.295348
  O    -5.980111    1.052972    0.843398
  O    -4.497482    0.393133    2.855059
  O    -3.489882    1.674780    0.971653
  H     3.503591   -1.854293    1.394726
  H     3.789014   -1.107634   -1.150287
  H     3.047625    1.330429   -1.197087
  H     2.566471    1.837964    0.453002
  H     6.717148    3.215698    1.924453
  H     4.889708    0.696604    3.178022
  H     0.454738   -2.204047    0.231165
  H     1.016203    0.570860    2.061883
  H     0.678466   -0.764057   -1.750552
  H     0.378937    1.828531   -0.718122
  H    -1.625364    0.444460   -0.126155
  H    -1.161816    0.898091   -2.487258
  H    -1.732278   -1.778123    0.483556
  H    -1.171950   -2.830998   -2.027603
  H    -3.458294   -2.925854   -0.737874
  H    -2.815432   -1.253943   -2.894279
  H    -3.946247    0.057215   -1.204851
  H    -5.177799   -1.199669   -0.984269
  H    -5.291900   -0.002490    3.209242
  H    -3.837069    2.565356    1.002331

----------------------------
CARTESIAN COORDINATES (A.U.)
----------------------------
  NO LB    ZA    FRAG    MASS        X           Y           Z
   0 O   8.0000    0    15.999    5.923370   -0.337934    4.644109
   1 C   6.0000    0    12.011    5.902159   -1.548320    2.721738
   2 C   6.0000    0    12.011    4.851649   -0.588144    0.240374
   3 O   8.0000    0    15.999    5.396872   -2.267440   -1.739253
   4 C   6.0000    0    12.011    5.896799    2.074764   -0.249131
   5 O   8.0000    0    15.999    8.478874    2.155909    0.461132
   6 P  15.0000    0    30.974    9.158525    3.836516    2.874352
   7 O   8.0000    0    15.999    7.097522    5.355094    3.917622
   8 O   8.0000    0    15.999   11.483255    5.277936    1.648529
   9 O   8.0000    0    15.999   10.488515    2.016367    4.891770
  10 C   6.0000    0    12.011    1.880187   -0.622127    0.650097
  11 O   8.0000    0    15.999    1.285190   -2.946346    1.739426
  12 O   8.0000    0    15.999    1.156919    1.314928    2.250188
  13 C   6.0000    0    12.011    0.530914   -0.143298   -1.886677
  14 O   8.0000    0    15.999    1.051934    2.316566   -2.749097
  15 C   6.0000    0    12.011   -2.377876   -0.418823   -1.738646
  16 O   8.0000    0    15.999   -3.342035    0.396159   -4.102574
  17 C   6.0000    0    12.011   -3.272594   -3.135275   -1.138530
  18 O   8.0000    0    15.999   -1.612005   -4.965335   -2.141169
  19 C   6.0000    0    12.011   -5.956754   -3.688559   -2.147226
  20 O   8.0000    0    15.999   -5.890394   -3.973409   -4.779680
  21 C   6.0000    0    12.011   -7.874620   -1.679482   -1.329593
  22 O   8.0000    0    15.999   -7.734243   -1.387375    1.333332
  23 P  15.0000    0    30.974   -8.791408    1.201617    2.447852
  24 O   8.0000    0    15.999  -11.300772    1.989829    1.593791
  25 O   8.0000    0    15.999   -8.499009    0.742914    5.395279
  26 O   8.0000    0    15.999   -6.594922    3.164875    1.836159
  27 H   1.0000    0     1.008    6.620828   -3.504107    2.635650
  28 H   1.0000    0     1.008    7.160199   -2.093124   -2.173728
  29 H   1.0000    0     1.008    5.759176    2.514147   -2.262167
  30 H   1.0000    0     1.008    4.849927    3.473249    0.856050
  31 H   1.0000    0     1.008   12.693570    6.076788    3.636689
  32 H   1.0000    0     1.008    9.240208    1.316390    6.005592
  33 H   1.0000    0     1.008    0.859330   -4.165045    0.436839
  34 H   1.0000    0     1.008    1.920345    1.078769    3.896395
  35 H   1.0000    0     1.008    1.282116   -1.443858   -3.308064
  36 H   1.0000    0     1.008    0.716088    3.455424   -1.357055
  37 H   1.0000    0     1.008   -3.071493    0.839908   -0.238398
  38 H   1.0000    0     1.008   -2.195515    1.697147   -4.700237
  39 H   1.0000    0     1.008   -3.273531   -3.360165    0.913789
  40 H   1.0000    0     1.008   -2.214665   -5.349811   -3.831614
  41 H   1.0000    0     1.008   -6.535228   -5.529062   -1.394380
  42 H   1.0000    0     1.008   -5.320395   -2.369610   -5.469394
  43 H   1.0000    0     1.008   -7.457326    0.108121   -2.276838
  44 H   1.0000    0     1.008   -9.784623   -2.267046   -1.859998
  45 H   1.0000    0     1.008  -10.000241   -0.004705    6.064589
  46 H   1.0000    0     1.008   -7.251010    4.847821    1.894132

      -----------------------------------------------------------      
     |                   =====================                   |     
     |                           x T B                           |     
     |                   =====================                   |     
     |                         S. Grimme                         |     
     |          Mulliken Center for Theoretical Chemistry        |     
     |                    University of Bonn                     |     
      -----------------------------------------------------------      

   * xtb version 6.5.1 (579679a) compiled by 'ehlert@majestix' on 2022-07-11

   xtb is free software: you can redistribute it and/or modify it under
   the terms of the GNU Lesser General Public License as published by
   the Free Software Foundation, either version 3 of the License, or
   (at your option) any later version.
   
   xtb is distributed in the hope that it will be useful,
   but WITHOUT ANY WARRANTY; without even the implied warranty of
   MERCHANTABILITY or FITNESS FOR A PARTICULAR PURPOSE.  See the
   GNU Lesser General Public License for more details.
   
   Cite this work as:
   * C. Bannwarth, E. Caldeweyher, S. Ehlert, A. Hansen, P. Pracht,
     J. Seibert, S. Spicher, S. Grimme, WIREs Comput. Mol. Sci., 2020, 11,
     e01493. DOI: 10.1002/wcms.1493
   
   for GFN2-xTB:
   * C. Bannwarth, S. Ehlert and S. Grimme., J. Chem. Theory Comput., 2019,
     15, 1652-1671. DOI: 10.1021/acs.jctc.8b01176
   for GFN1-xTB:
   * S. Grimme, C. Bannwarth, P. Shushkov, J. Chem. Theory Comput., 2017,
     13, 1989-2009. DOI: 10.1021/acs.jctc.7b00118
   for GFN0-xTB:
   * P. Pracht, E. Caldeweyher, S. Ehlert, S. Grimme, ChemRxiv, 2019, preprint.
     DOI: 10.26434/chemrxiv.8326202.v1
   for GFN-FF:
   * S. Spicher and S. Grimme, Angew. Chem. Int. Ed., 2020, 59, 15665-15673.
     DOI: 10.1002/anie.202004239
   
   for ALPB and GBSA implicit solvation:
   * S. Ehlert, M. Stahn, S. Spicher, S. Grimme, J. Chem. Theory Comput.,
     2021, 17, 4250-4261. DOI: 10.1021/acs.jctc.1c00471
   
   for DFT-D4:
   * E. Caldeweyher, C. Bannwarth and S. Grimme, J. Chem. Phys., 2017,
     147, 034112. DOI: 10.1063/1.4993215
   * E. Caldeweyher, S. Ehlert, A. Hansen, H. Neugebauer, S. Spicher,
     C. Bannwarth and S. Grimme, J. Chem. Phys., 2019, 150, 154122.
     DOI: 10.1063/1.5090222
   * E. Caldeweyher, J.-M. Mewes, S. Ehlert and S. Grimme, Phys. Chem. Chem. Phys.
     2020, 22, 8499-8512. DOI: 10.1039/D0CP00502A
   
   for sTDA-xTB:
   * S. Grimme and C. Bannwarth, J. Chem. Phys., 2016, 145, 054103.
     DOI: 10.1063/1.4959605
   
   in the mass-spec context:
   * V. Asgeirsson, C. Bauer and S. Grimme, Chem. Sci., 2017, 8, 4879.
     DOI: 10.1039/c7sc00601b
   * J. Koopman and S. Grimme, ACS Omega 2019, 4, 12, 15120-15133.
     DOI: 10.1021/acsomega.9b02011
   
   for metadynamics refer to:
   * S. Grimme, J. Chem. Theory Comput., 2019, 155, 2847-2862
     DOI: 10.1021/acs.jctc.9b00143
   
   for SPH calculations refer to:
   * S. Spicher and S. Grimme, J. Chem. Theory Comput., 2021, 17, 1701-1714
     DOI: 10.1021/acs.jctc.0c01306
   
   with help from (in alphabetical order)
   P. Atkinson, C. Bannwarth, F. Bohle, G. Brandenburg, E. Caldeweyher
   M. Checinski, S. Dohm, S. Ehlert, S. Ehrlich, I. Gerasimov, C. Hölzer
   A. Katbashev, J. Koopman, C. Lavigne, S. Lehtola, F. März, M. Müller,
   F. Musil, H. Neugebauer, J. Pisarek, C. Plett, P. Pracht, F. Pultar,
   J. Seibert, P. Shushkov, S. Spicher, M. Stahn, M. Steiner, T. Strunk,
   J. Stückrath, T. Rose, and J. Unsleber
   
 * started run on 2023/12/07 at 09:51:31.121     

           -------------------------------------------------
          |                Calculation Setup                |
           -------------------------------------------------

          program call               : otool_xtb /tmp/28_XTB.xyz --grad -c 0 -u 0 -P 1 --namespace /tmp/28 --input /tmp/28_XTB.input.tmp --acc 1.000000
          calculation namespace      : /tmp/28
          coordinate file            : /tmp/28_XTB.xyz
          omp threads                :                     1

   ID    Z sym.   atoms
    1    8 O      1, 4, 6, 8-10, 12, 13, 15, 17, 19, 21, 23, 25-27
    2    6 C      2, 3, 5, 11, 14, 16, 18, 20, 22
    3   15 P      7, 24
    4    1 H      28-47

molecular fragmentation (1/2 indicates fragments):
11111111111111111111111111111112111111111111111
# atoms in fragment 1/2:    46     1
 fragment masses (1/2) :      445.19        1.01
CMA distance (Bohr)    :  14.000
constraining FC (au)   :  0.0500

           -------------------------------------------------
          |                 G F N 2 - x T B                 |
           -------------------------------------------------

        Reference                      10.1021/acs.jctc.8b01176
      * Hamiltonian:
        H0-scaling (s, p, d)           1.850000    2.230000    2.230000
        zeta-weighting                 0.500000
      * Dispersion:
        s8                             2.700000
        a1                             0.520000
        a2                             5.000000
        s9                             5.000000
      * Repulsion:
        kExp                           1.500000    1.000000
        rExp                           1.000000
      * Coulomb:
        alpha                          2.000000
        third order                    shell-resolved
        anisotropic                    true
        a3                             3.000000
        a5                             4.000000
[...]
 36:    327.79   0.002831   14.31  0.002695  (-0.018662  0.035156  0.033327)
 37:    329.68   0.000746    3.77  0.000706  (-0.024627  0.000091 -0.009991)
 38:    335.45   0.014947   75.54  0.013905  (-0.033518  0.091893 -0.065857)
 39:    338.32   0.001649    8.34  0.001521  (-0.003267 -0.031049  0.023381)
 40:    343.93   0.010962   55.40  0.009946  (-0.008805  0.009312 -0.098902)
 41:    354.30   0.004303   21.74  0.003790  ( 0.003741 -0.057111 -0.022677)
 42:    364.09   0.014476   73.16  0.012408  (-0.075819 -0.081134  0.008741)
 43:    382.39   0.009307   47.04  0.007596  (-0.022970 -0.042407  0.072592)
 44:    398.11   0.005689   28.75  0.004459  ( 0.049728  0.044550  0.001195)
 45:    402.87   0.021957  110.96  0.017008  ( 0.110723  0.035528 -0.059045)
 46:    405.68   0.018526   93.62  0.014250  ( 0.057210  0.029111 -0.100648)
 47:    413.06   0.002580   13.04  0.001949  (-0.007323 -0.035540  0.025143)
 48:    425.48   0.002014   10.18  0.001477  (-0.017948 -0.010951 -0.032177)
 49:    427.28   0.052299  264.30  0.038196  ( 0.031797  0.192834  0.000194)
 50:    434.23   0.015945   80.58  0.011459  ( 0.066115  0.065381  0.053039)
 51:    443.02   0.051264  259.07  0.036110  (-0.079524 -0.087238 -0.148914)
 52:    450.33   0.017205   86.95  0.011923  ( 0.080523 -0.058285 -0.045183)
 53:    453.92   0.001772    8.95  0.001218  ( 0.008665  0.021673  0.025945)
 54:    470.58   0.009668   48.86  0.006412  (-0.046352  0.051163 -0.040564)
 55:    493.48   0.017456   88.22  0.011039  ( 0.067809  0.057776 -0.055701)
 56:    498.05   0.015784   79.77  0.009890  ( 0.087125  0.007662  0.047335)
 57:    518.32   0.002097   10.60  0.001262  ( 0.024566  0.021166  0.014519)
 58:    522.97   0.009051   45.74  0.005401  (-0.061331  0.039219  0.010048)
 59:    535.53   0.011496   58.10  0.006699  ( 0.080949 -0.006116 -0.010428)
 60:    559.25   0.038598  195.06  0.021538  ( 0.141127 -0.034551  0.020669)
 61:    578.16   0.016435   83.05  0.008871  (-0.088537  0.004684 -0.031780)
 62:    594.32   0.073354  370.70  0.038517  ( 0.195085  0.020323  0.006736)
 63:    622.73   0.001808    9.14  0.000906  ( 0.006033 -0.029297 -0.003334)
 64:    639.03   0.007018   35.47  0.003427  (-0.011084 -0.042010 -0.039239)
 65:    752.19   0.025830  130.53  0.010716  (-0.044603 -0.077486 -0.052179)
 66:    761.49   0.004263   21.54  0.001747  ( 0.008475  0.005531  0.040553)
 67:    791.41   0.004455   22.51  0.001757  (-0.040599  0.010349  0.001145)
 68:    807.68   0.007311   36.95  0.002825  ( 0.043258  0.027206  0.014613)
 69:    822.27   0.036049  182.18  0.013681  ( 0.089350  0.014701  0.074037)
 70:    834.01   0.005278   26.67  0.001975  ( 0.018756 -0.033425 -0.022490)
 71:    835.43   0.041272  208.57  0.015417  ( 0.011309 -0.120005 -0.029796)
 72:    853.74   0.008039   40.63  0.002938  (-0.033609  0.031589 -0.028477)
 73:    857.74   0.064518  326.05  0.023473  ( 0.065846  0.130730 -0.045241)
 74:    859.42   0.038029  192.18  0.013809  ( 0.012796  0.065716 -0.096572)
 75:    894.04   0.061631  311.46  0.021512  (-0.015411  0.043429  0.139243)
 76:    899.72   0.063278  319.78  0.021948  ( 0.026781  0.010738 -0.145311)
 77:    914.56   0.003429   17.33  0.001170  (-0.032839  0.009488 -0.001321)
 78:    920.18   0.060133  303.89  0.020393  (-0.128790 -0.056611 -0.024521)
 79:    934.90   0.054576  275.80  0.018217  ( 0.124026  0.014380  0.051262)
 80:    950.68   0.006496   32.83  0.002132  (-0.042020 -0.002393  0.019002)
 81:    960.25   0.002727   13.78  0.000886  (-0.024804  0.016093  0.003455)
 82:    989.40   0.007629   38.55  0.002406  (-0.034363  0.005596 -0.034555)
 83:   1008.44   0.004909   24.81  0.001519  ( 0.011797  0.035087  0.012194)
 84:   1038.65   0.003806   19.24  0.001144  ( 0.029150 -0.005040 -0.016387)
 85:   1063.46   0.013427   67.85  0.003940  ( 0.053986 -0.031578  0.005329)
 86:   1069.73   0.053756  271.66  0.015682  (-0.101513 -0.063253 -0.037096)
 87:   1080.01   0.011220   56.70  0.003242  ( 0.008921  0.004675 -0.056040)
 88:   1087.00   0.016763   84.71  0.004812  ( 0.019590  0.022069 -0.062782)
 89:   1095.28   0.006969   35.22  0.001986  (-0.000174 -0.038528 -0.022389)
 90:   1101.95   0.021012  106.18  0.005950  ( 0.003561  0.031719  0.070225)
 91:   1112.96   0.014841   75.00  0.004161  (-0.002987  0.001592 -0.064419)
 92:   1114.38   0.043152  218.07  0.012084  ( 0.011262 -0.105848  0.027449)
 93:   1129.23   0.027832  140.65  0.007692  (-0.022399  0.074187  0.041063)
 94:   1138.64   0.003076   15.55  0.000843  (-0.011819 -0.005480 -0.025948)
 95:   1160.96   0.017874   90.33  0.004804  ( 0.057414  0.013451 -0.036429)
 96:   1164.60   0.007966   40.26  0.002135  (-0.024680  0.005435  0.038677)
 97:   1176.51   0.006845   34.59  0.001816  (-0.003712  0.042173 -0.004825)
 98:   1197.64   0.017413   88.00  0.004537  ( 0.043431 -0.004508  0.051289)
 99:   1203.70   0.003462   17.50  0.000898  (-0.009177 -0.016346 -0.023370)
100:   1223.13   0.012964   65.52  0.003308  (-0.053164  0.019254 -0.010512)
101:   1237.43   0.016638   84.08  0.004196  ( 0.028587  0.000045 -0.058126)
102:   1243.18   0.021000  106.13  0.005271  (-0.056547  0.035161 -0.028941)
103:   1257.77   0.015042   76.02  0.003732  (-0.042681  0.033798  0.027713)
104:   1264.50   0.049529  250.30  0.012223  (-0.098275  0.050372  0.005282)
105:   1267.80   0.073439  371.13  0.018077  ( 0.122791 -0.034197  0.042774)
106:   1276.07   0.029006  146.59  0.007094  ( 0.055988 -0.048299 -0.040325)
107:   1283.01   0.001508    7.62  0.000367  ( 0.010855  0.006869  0.014201)
108:   1298.35   0.001984   10.03  0.000477  (-0.020259  0.006705 -0.004636)
109:   1312.84   0.005444   27.51  0.001294  ( 0.033282 -0.012903 -0.004451)
110:   1317.57   0.015408   77.86  0.003649  ( 0.006690 -0.042551  0.042354)
111:   1325.77   0.008076   40.81  0.001901  (-0.005606 -0.042818  0.006014)
112:   1330.27   0.003701   18.70  0.000868  ( 0.002728 -0.007902  0.028254)
113:   1333.58   0.008561   43.27  0.002003  ( 0.027155  0.035360  0.003952)
114:   1338.44   0.015954   80.63  0.003720  (-0.008045  0.045932 -0.039311)
115:   1343.55   0.010909   55.13  0.002534  ( 0.028264 -0.041006 -0.007311)
116:   1343.81   0.014723   74.41  0.003419  ( 0.050333 -0.028183  0.009562)
117:   1354.58   0.029210  147.61  0.006729  ( 0.011402  0.050398  0.063712)
118:   1437.22   0.001362    6.88  0.000296  (-0.012072  0.010829 -0.005719)
119:   1474.43   0.003823   19.32  0.000809  ( 0.014268 -0.023979 -0.005522)
120:   1766.16   0.047075  237.90  0.008318  ( 0.030608  0.022209  0.082992)
121:   2818.81   0.006748   34.10  0.000747  ( 0.009779 -0.025486 -0.001357)
122:   2903.55   0.006120   30.93  0.000658  ( 0.010131 -0.012084 -0.020225)
123:   2937.36   0.002272   11.48  0.000241  ( 0.005204  0.010467  0.010232)
124:   2947.75   0.009165   46.32  0.000970  (-0.020135 -0.023687 -0.001939)
125:   2950.43   0.003031   15.32  0.000321  ( 0.013427  0.006514  0.009890)
126:   2958.29   0.012467   63.00  0.001315  (-0.000679  0.028677 -0.022187)
127:   2968.96   0.005464   27.61  0.000574  ( 0.011927 -0.010797  0.017762)
128:   2975.13   0.002969   15.00  0.000311  ( 0.004822 -0.016445 -0.004208)
129:   2980.77   0.004799   24.25  0.000502  ( 0.002646 -0.011893 -0.018813)
130:   3397.69   0.019203   97.05  0.001764  (-0.007752  0.015147 -0.038396)
131:   3405.34   0.063322  320.01  0.005803  (-0.055722 -0.041190 -0.031643)
132:   3410.45   0.001761    8.90  0.000161  (-0.000542  0.011582  0.005168)
133:   3417.61   0.000357    1.80  0.000033  ( 0.000570 -0.005613 -0.000876)
134:   3462.07   0.008228   41.58  0.000742  (-0.008676  0.008730 -0.024293)
135:   3476.46   0.005771   29.16  0.000518  (-0.001801  0.014256  0.017650)
136:   3517.12   0.002842   14.36  0.000252  (-0.014699 -0.005591 -0.002213)
137:   3549.79   0.019900  100.57  0.001749  (-0.029946 -0.020724  0.020570)
138:   3619.36   0.015419   77.92  0.001329  (-0.002924 -0.036240  0.002744)
139:   3631.04   0.011400   57.61  0.000980  (-0.012063 -0.026473 -0.011550)
140:   3631.61   0.013627   68.86  0.001171  ( 0.024440 -0.006456 -0.023063)

* The epsilon (eps) is given for a Dirac delta lineshape.
** The dipole moment derivative (T) already includes vibrational overlap.

The first frequency considered to be a vibration is 6
The total number of vibrations considered is 135


--------------------------
THERMOCHEMISTRY AT 298.15K
--------------------------

Temperature         ... 298.15 K
Pressure            ... 1.00 atm
Total Mass          ... 446.19 AMU

Throughout the following assumptions are being made:
  (1) The electronic state is orbitally nondegenerate
  (2) There are no thermally accessible electronically excited states
  (3) Hindered rotations indicated by low frequency modes are not
      treated as such but are treated as vibrations and this may
      cause some error
  (4) All equations used are the standard statistical mechanics
      equations for an ideal gas
  (5) All vibrations are strictly harmonic

freq.       9.62  E(vib)   ...       0.58 
freq.      17.93  E(vib)   ...       0.57 
freq.      23.71  E(vib)   ...       0.56 
freq.      30.44  E(vib)   ...       0.55 
freq.      37.45  E(vib)   ...       0.54 
freq.      47.01  E(vib)   ...       0.53 
freq.      58.75  E(vib)   ...       0.51 
freq.      64.78  E(vib)   ...       0.50 
freq.      79.22  E(vib)   ...       0.49 
freq.      81.29  E(vib)   ...       0.48 
freq.      90.60  E(vib)   ...       0.47 
freq.      98.31  E(vib)   ...       0.46 
freq.     124.99  E(vib)   ...       0.43 
freq.     134.63  E(vib)   ...       0.42 
freq.     143.07  E(vib)   ...       0.41 
freq.     150.95  E(vib)   ...       0.40 
freq.     175.21  E(vib)   ...       0.38 
freq.     183.13  E(vib)   ...       0.37 
freq.     197.04  E(vib)   ...       0.35 
freq.     202.87  E(vib)   ...       0.35 
freq.     206.96  E(vib)   ...       0.35 
freq.     212.74  E(vib)   ...       0.34 
freq.     221.62  E(vib)   ...       0.33 
freq.     233.57  E(vib)   ...       0.32 
freq.     251.68  E(vib)   ...       0.30 
freq.     260.59  E(vib)   ...       0.30 
freq.     274.43  E(vib)   ...       0.28 
freq.     275.75  E(vib)   ...       0.28 
freq.     296.03  E(vib)   ...       0.27 
freq.     305.13  E(vib)   ...       0.26 
freq.     327.79  E(vib)   ...       0.24 
freq.     329.68  E(vib)   ...       0.24 
freq.     335.45  E(vib)   ...       0.24 
freq.     338.32  E(vib)   ...       0.23 
freq.     343.93  E(vib)   ...       0.23 
freq.     354.30  E(vib)   ...       0.22 
freq.     364.09  E(vib)   ...       0.22 
freq.     382.39  E(vib)   ...       0.21 
freq.     398.11  E(vib)   ...       0.20 
freq.     402.87  E(vib)   ...       0.19 
freq.     405.68  E(vib)   ...       0.19 
freq.     413.06  E(vib)   ...       0.19 
freq.     425.48  E(vib)   ...       0.18 
freq.     427.28  E(vib)   ...       0.18 
freq.     434.23  E(vib)   ...       0.17 
freq.     443.02  E(vib)   ...       0.17 
freq.     450.33  E(vib)   ...       0.17 
freq.     453.92  E(vib)   ...       0.16 
freq.     470.58  E(vib)   ...       0.15 
freq.     493.48  E(vib)   ...       0.14 
freq.     498.05  E(vib)   ...       0.14 
freq.     518.32  E(vib)   ...       0.13 
freq.     522.97  E(vib)   ...       0.13 
freq.     535.53  E(vib)   ...       0.12 
freq.     559.25  E(vib)   ...       0.12 
freq.     578.16  E(vib)   ...       0.11 
freq.     594.32  E(vib)   ...       0.10 
freq.     622.73  E(vib)   ...       0.09 
freq.     639.03  E(vib)   ...       0.09 
freq.     752.19  E(vib)   ...       0.06 
freq.     761.49  E(vib)   ...       0.06 
freq.     791.41  E(vib)   ...       0.05 
freq.     807.68  E(vib)   ...       0.05 
freq.     822.27  E(vib)   ...       0.05 
freq.     834.01  E(vib)   ...       0.04 
freq.     835.43  E(vib)   ...       0.04 
freq.     853.74  E(vib)   ...       0.04 
freq.     857.74  E(vib)   ...       0.04 
freq.     859.42  E(vib)   ...       0.04 
freq.     894.04  E(vib)   ...       0.03 
freq.     899.72  E(vib)   ...       0.03 
freq.     914.56  E(vib)   ...       0.03 
freq.     920.18  E(vib)   ...       0.03 
freq.     934.90  E(vib)   ...       0.03 
freq.     950.68  E(vib)   ...       0.03 
freq.     960.25  E(vib)   ...       0.03 
freq.     989.40  E(vib)   ...       0.02 
freq.    1008.44  E(vib)   ...       0.02 
freq.    1038.65  E(vib)   ...       0.02 
freq.    1063.46  E(vib)   ...       0.02 
freq.    1069.73  E(vib)   ...       0.02 
freq.    1080.01  E(vib)   ...       0.02 
freq.    1087.00  E(vib)   ...       0.02 
freq.    1095.28  E(vib)   ...       0.02 
freq.    1101.95  E(vib)   ...       0.02 
freq.    1112.96  E(vib)   ...       0.01 
freq.    1114.38  E(vib)   ...       0.01 
freq.    1129.23  E(vib)   ...       0.01 
freq.    1138.64  E(vib)   ...       0.01 
freq.    1160.96  E(vib)   ...       0.01 
freq.    1164.60  E(vib)   ...       0.01 
freq.    1176.51  E(vib)   ...       0.01 
freq.    1197.64  E(vib)   ...       0.01 
freq.    1203.70  E(vib)   ...       0.01 
freq.    1223.13  E(vib)   ...       0.01 
freq.    1237.43  E(vib)   ...       0.01 
freq.    1243.18  E(vib)   ...       0.01 
freq.    1257.77  E(vib)   ...       0.01 
freq.    1264.50  E(vib)   ...       0.01 
freq.    1267.80  E(vib)   ...       0.01 
freq.    1276.07  E(vib)   ...       0.01 
freq.    1283.01  E(vib)   ...       0.01 
freq.    1298.35  E(vib)   ...       0.01 
freq.    1312.84  E(vib)   ...       0.01 
freq.    1317.57  E(vib)   ...       0.01 
freq.    1325.77  E(vib)   ...       0.01 
freq.    1330.27  E(vib)   ...       0.01 
freq.    1333.58  E(vib)   ...       0.01 
freq.    1338.44  E(vib)   ...       0.01 
freq.    1343.55  E(vib)   ...       0.01 
freq.    1343.81  E(vib)   ...       0.01 
freq.    1354.58  E(vib)   ...       0.01 
freq.    1437.22  E(vib)   ...       0.00 
freq.    1474.43  E(vib)   ...       0.00 
freq.    1766.16  E(vib)   ...       0.00 
freq.    2818.81  E(vib)   ...       0.00 
freq.    2903.55  E(vib)   ...       0.00 
freq.    2937.36  E(vib)   ...       0.00 
freq.    2947.75  E(vib)   ...       0.00 
freq.    2950.43  E(vib)   ...       0.00 
freq.    2958.29  E(vib)   ...       0.00 
freq.    2968.96  E(vib)   ...       0.00 
freq.    2975.13  E(vib)   ...       0.00 
freq.    2980.77  E(vib)   ...       0.00 
freq.    3397.69  E(vib)   ...       0.00 
freq.    3405.34  E(vib)   ...       0.00 
freq.    3410.45  E(vib)   ...       0.00 
freq.    3417.61  E(vib)   ...       0.00 
freq.    3462.07  E(vib)   ...       0.00 
freq.    3476.46  E(vib)   ...       0.00 
freq.    3517.12  E(vib)   ...       0.00 
freq.    3549.79  E(vib)   ...       0.00 
freq.    3619.36  E(vib)   ...       0.00 
freq.    3631.04  E(vib)   ...       0.00 
freq.    3631.61  E(vib)   ...       0.00 

------------
INNER ENERGY
------------

The inner energy is: U= E(el) + E(ZPE) + E(vib) + E(rot) + E(trans)
    E(el)   - is the total energy from the electronic structure calculation
              = E(kin-el) + E(nuc-el) + E(el-el) + E(nuc-nuc)
    E(ZPE)  - the the zero temperature vibrational energy from the frequency calculation
    E(vib)  - the the finite temperature correction to E(ZPE) due to population
              of excited vibrational states
    E(rot)  - is the rotational thermal energy
    E(trans)- is the translational thermal energy

Summary of contributions to the inner energy U:
Electronic energy                ...    -99.86708712 Eh
Zero point energy                ...      0.33061489 Eh     207.46 kcal/mol
Thermal vibrational correction   ...      0.02940835 Eh      18.45 kcal/mol
Thermal rotational correction    ...      0.00141627 Eh       0.89 kcal/mol
Thermal translational correction ...      0.00141627 Eh       0.89 kcal/mol
-----------------------------------------------------------------------
Total thermal energy                    -99.50423135 Eh


Summary of corrections to the electronic energy:
(perhaps to be used in another calculation)
Total thermal correction                  0.03224089 Eh      20.23 kcal/mol
Non-thermal (ZPE) correction              0.33061489 Eh     207.46 kcal/mol
-----------------------------------------------------------------------
Total correction                          0.36285577 Eh     227.69 kcal/mol


--------
ENTHALPY
--------

The enthalpy is H = U + kB*T
                kB is Boltzmann's constant
Total free energy                 ...    -99.50423135 Eh 
Thermal Enthalpy correction       ...      0.00094421 Eh       0.59 kcal/mol
-----------------------------------------------------------------------
Total Enthalpy                    ...    -99.50328714 Eh


Note: Only C1 symmetry has been detected, increase convergence thresholds 
      if your molecule has a higher symmetry. Symmetry factor of 1.0 is   
      used for the rotational entropy correction. 
 

Note: Rotational entropy computed according to Herzberg 
Infrared and Raman Spectra, Chapter V,1, Van Nostrand Reinhold, 1945 
Point Group:  C1, Symmetry Number:   1  
Rotational constants in cm-1:     0.010358     0.002590     0.002331 

Vibrational entropy computed according to the QRRHO of S. Grimme
Chem.Eur.J. 2012 18 9955


-------
ENTROPY
-------

The entropy contributions are T*S = T*(S(el)+S(vib)+S(rot)+S(trans))
     S(el)   - electronic entropy
     S(vib)  - vibrational entropy
     S(rot)  - rotational entropy
     S(trans)- translational entropy
The entropies will be listed as multiplied by the temperature to get
units of energy

Electronic entropy                ...      0.00000000 Eh      0.00 kcal/mol
Vibrational entropy               ...      0.05309769 Eh     33.32 kcal/mol
Rotational entropy                ...      0.01734158 Eh     10.88 kcal/mol
Translational entropy             ...      0.02098938 Eh     13.17 kcal/mol
-----------------------------------------------------------------------
Final entropy term                ...      0.09142865 Eh     57.37 kcal/mol

In case the symmetry of your molecule has not been determined correctly
or in case you have a reason to use a different symmetry number we print 
out the resulting rotational entropy values for sn=1,12 :
 --------------------------------------------------------
|  sn= 1 | S(rot)=       0.01734158 Eh     10.88 kcal/mol|
|  sn= 2 | S(rot)=       0.01668712 Eh     10.47 kcal/mol|
|  sn= 3 | S(rot)=       0.01630429 Eh     10.23 kcal/mol|
|  sn= 4 | S(rot)=       0.01603266 Eh     10.06 kcal/mol|
|  sn= 5 | S(rot)=       0.01582198 Eh      9.93 kcal/mol|
|  sn= 6 | S(rot)=       0.01564983 Eh      9.82 kcal/mol|
|  sn= 7 | S(rot)=       0.01550429 Eh      9.73 kcal/mol|
|  sn= 8 | S(rot)=       0.01537821 Eh      9.65 kcal/mol|
|  sn= 9 | S(rot)=       0.01526700 Eh      9.58 kcal/mol|
|  sn=10 | S(rot)=       0.01516752 Eh      9.52 kcal/mol|
|  sn=11 | S(rot)=       0.01507753 Eh      9.46 kcal/mol|
|  sn=12 | S(rot)=       0.01499538 Eh      9.41 kcal/mol|
 --------------------------------------------------------


-------------------
GIBBS FREE ENERGY
-------------------

The Gibbs free energy is G = H - T*S

Total enthalpy                    ...    -99.50328714 Eh 
Total entropy correction          ...     -0.09142865 Eh    -57.37 kcal/mol
-----------------------------------------------------------------------
Final Gibbs free energy         ...    -99.59471579 Eh

For completeness - the Gibbs free energy minus the electronic energy
G-E(el)                           ...      0.27237133 Eh    170.92 kcal/mol



Timings for individual modules:

Sum of individual times         ...      711.927 sec (=  11.865 min)
Geometry relaxation             ...        2.581 sec (=   0.043 min)   0.4 %
Numerical frequency calculation ...      707.127 sec (=  11.785 min)  99.3 %
XTB module                      ...        2.219 sec (=   0.037 min)   0.3 %
                             ****ORCA TERMINATED NORMALLY****
TOTAL RUN TIME: 0 days 0 hours 11 minutes 53 seconds 885 msec
