
                                 *****************
                                 * O   R   C   A *
                                 *****************

                                            #,                                       
                                            ###                                      
                                            ####                                     
                                            #####                                    
                                            ######                                   
                                           ########,                                 
                                     ,,################,,,,,                         
                               ,,#################################,,                 
                          ,,##########################################,,             
                       ,#########################################, ''#####,          
                    ,#############################################,,   '####,        
                  ,##################################################,,,,####,       
                ,###########''''           ''''###############################       
              ,#####''   ,,,,##########,,,,          '''####'''          '####       
            ,##' ,,,,###########################,,,                        '##       
           ' ,,###''''                  '''############,,,                           
         ,,##''                                '''############,,,,        ,,,,,,###''
      ,#''                                            '''#######################'''  
     '                                                          ''''####''''         
             ,#######,   #######,   ,#######,      ##                                
            ,#'     '#,  ##    ##  ,#'     '#,    #''#        ######   ,####,        
            ##       ##  ##   ,#'  ##            #'  '#       #        #'  '#        
            ##       ##  #######   ##           ,######,      #####,   #    #        
            '#,     ,#'  ##    ##  '#,     ,#' ,#      #,         ##   #,  ,#        
             '#######'   ##     ##  '#######'  #'      '#     #####' # '####'        



                  #######################################################
                  #                        -***-                        #
                  #          Department of theory and spectroscopy      #
                  #    Directorship and core code : Frank Neese         #
                  #        Max Planck Institute fuer Kohlenforschung    #
                  #                Kaiser Wilhelm Platz 1               #
                  #                 D-45470 Muelheim/Ruhr               #
                  #                      Germany                        #
                  #                                                     #
                  #                  All rights reserved                #
                  #                        -***-                        #
                  #######################################################


                         Program Version 5.0.3 -  RELEASE  -


 With contributions from (in alphabetic order):
   Daniel Aravena         : Magnetic Suceptibility
   Michael Atanasov       : Ab Initio Ligand Field Theory (pilot matlab implementation)
   Alexander A. Auer      : GIAO ZORA, VPT2 properties, NMR spectrum
   Ute Becker             : Parallelization
   Giovanni Bistoni       : ED, misc. LED, open-shell LED, HFLD
   Martin Brehm           : Molecular dynamics
   Dmytro Bykov           : SCF Hessian
   Vijay G. Chilkuri      : MRCI spin determinant printing, contributions to CSF-ICE
   Dipayan Datta          : RHF DLPNO-CCSD density
   Achintya Kumar Dutta   : EOM-CC, STEOM-CC
   Dmitry Ganyushin       : Spin-Orbit,Spin-Spin,Magnetic field MRCI
   Miquel Garcia          : C-PCM and meta-GGA Hessian, CC/C-PCM, Gaussian charge scheme
   Yang Guo               : DLPNO-NEVPT2, F12-NEVPT2, CIM, IAO-localization
   Andreas Hansen         : Spin unrestricted coupled pair/coupled cluster methods
   Benjamin Helmich-Paris : MC-RPA, TRAH-SCF, COSX integrals
   Lee Huntington         : MR-EOM, pCC
   Robert Izsak           : Overlap fitted RIJCOSX, COSX-SCS-MP3, EOM
   Marcus Kettner         : VPT2
   Christian Kollmar      : KDIIS, OOCD, Brueckner-CCSD(T), CCSD density, CASPT2, CASPT2-K
   Simone Kossmann        : Meta GGA functionals, TD-DFT gradient, OOMP2, MP2 Hessian
   Martin Krupicka        : Initial AUTO-CI
   Lucas Lang             : DCDCAS
   Marvin Lechner         : AUTO-CI (C++ implementation), FIC-MRCC
   Dagmar Lenk            : GEPOL surface, SMD
   Dimitrios Liakos       : Extrapolation schemes; Compound Job, initial MDCI parallelization
   Dimitrios Manganas     : Further ROCIS development; embedding schemes
   Dimitrios Pantazis     : SARC Basis sets
   Anastasios Papadopoulos: AUTO-CI, single reference methods and gradients
   Taras Petrenko         : DFT Hessian,TD-DFT gradient, ASA, ECA, R-Raman, ABS, FL, XAS/XES, NRVS
   Peter Pinski           : DLPNO-MP2, DLPNO-MP2 Gradient
   Christoph Reimann      : Effective Core Potentials
   Marius Retegan         : Local ZFS, SOC
   Christoph Riplinger    : Optimizer, TS searches, QM/MM, DLPNO-CCSD(T), (RO)-DLPNO pert. Triples
   Tobias Risthaus        : Range-separated hybrids, TD-DFT gradient, RPA, STAB
   Michael Roemelt        : Original ROCIS implementation
   Masaaki Saitow         : Open-shell DLPNO-CCSD energy and density
   Barbara Sandhoefer     : DKH picture change effects
   Avijit Sen             : IP-ROCIS
   Kantharuban Sivalingam : CASSCF convergence, NEVPT2, FIC-MRCI
   Bernardo de Souza      : ESD, SOC TD-DFT
   Georgi Stoychev        : AutoAux, RI-MP2 NMR, DLPNO-MP2 response
   Willem Van den Heuvel  : Paramagnetic NMR
   Boris Wezisla          : Elementary symmetry handling
   Frank Wennmohs         : Technical directorship


 We gratefully acknowledge several colleagues who have allowed us to
 interface, adapt or use parts of their codes:
   Stefan Grimme, W. Hujo, H. Kruse, P. Pracht,  : VdW corrections, initial TS optimization,
                  C. Bannwarth, S. Ehlert          DFT functionals, gCP, sTDA/sTD-DF
   Ed Valeev, F. Pavosevic, A. Kumar             : LibInt (2-el integral package), F12 methods
   Garnet Chan, S. Sharma, J. Yang, R. Olivares  : DMRG
   Ulf Ekstrom                                   : XCFun DFT Library
   Mihaly Kallay                                 : mrcc  (arbitrary order and MRCC methods)
   Jiri Pittner, Ondrej Demel                    : Mk-CCSD
   Frank Weinhold                                : gennbo (NPA and NBO analysis)
   Christopher J. Cramer and Donald G. Truhlar   : smd solvation model
   Lars Goerigk                                  : TD-DFT with DH, B97 family of functionals
   V. Asgeirsson, H. Jonsson                     : NEB implementation
   FAccTs GmbH                                   : IRC, NEB, NEB-TS, DLPNO-Multilevel, CI-OPT
                                                   MM, QMMM, 2- and 3-layer-ONIOM, Crystal-QMMM,
                                                   LR-CPCM, SF, NACMEs, symmetry and pop. for TD-DFT,
                                                   nearIR, NL-DFT gradient (VV10), updates on ESD,
                                                   ML-optimized integration grids
   S Lehtola, MJT Oliveira, MAL Marques          : LibXC Library
   Liviu Ungur et al                             : ANISO software


 Your calculation uses the libint2 library for the computation of 2-el integrals
 For citations please refer to: http://libint.valeyev.net

 Your ORCA version has been built with support for libXC version: 5.1.0
 For citations please refer to: https://tddft.org/programs/libxc/

 This ORCA versions uses:
   CBLAS   interface :  Fast vector & matrix operations
   LAPACKE interface :  Fast linear algebra routines
   SCALAPACK package :  Parallel linear algebra routines
   Shared memory     :  Shared parallel matrices
   BLAS/LAPACK       :  OpenBLAS 0.3.15  USE64BITINT DYNAMIC_ARCH NO_AFFINITY Haswell SINGLE_THREADED
        Core in use  :  Haswell
   Copyright (c) 2011-2014, The OpenBLAS Project


Your calculation utilizes the semiempirical GFN2-xTB method
Please cite in your paper:
C. Bannwarth, Ehlert S., S. Grimme,  J. Chem. Theory Comput., 15, (2019), 1652.
   

================================================================================

================================================================================
                                        WARNINGS
                       Please study these warnings very carefully!
================================================================================


WARNING: Geometry Optimization
  ===> : Switching off AutoStart
         For restart on a previous wavefunction, please use MOREAD

WARNING: Found dipole moment calculation with XTB calculation
  ===> : Switching off dipole moment calculation


WARNING: TRAH-SCF for XTB is not implemented!
  ===> : Turning TRAH off!

================================================================================
                                       INPUT FILE
================================================================================
NAME = /tmp/30.inp
|  1> ! XTB2 opt numfreq
|  2> * XYZ 0 1
|  3> C -3.4221 2.2997 0.8091
|  4> C -2.7557 1.2251 -0.0568
|  5> O -2.7238 1.7049 -1.4203
|  6> C -3.6966 0.0103 -0.0727
|  7> O -4.4967 -0.2437 -0.9616
|  8> O -3.6230 -0.7763 1.0192
|  9> C -1.3183 0.8336 0.4224
| 10> O -1.3593 0.3416 1.7846
| 11> C -0.4547 2.1111 0.4574
| 12> O -0.1147 2.7357 1.4529
| 13> O -0.0933 2.5794 -0.7545
| 14> C -0.6689 -0.2682 -0.4721
| 15> O -0.6271 0.0519 -1.8761
| 16> C 0.7725 -0.6542 -0.0436
| 17> O 1.6846 0.3485 -0.5380
| 18> C 1.1669 -2.0545 -0.5867
| 19> O 0.2543 -3.0339 -0.0727
| 20> C 2.6013 -2.4537 -0.2036
| 21> O 3.5408 -1.7011 -0.9459
| 22> P 4.6760 -0.9189 -0.1385
| 23> O 5.6595 -1.7774 0.5783
| 24> O 5.3552 0.0318 -1.2251
| 25> O 3.8884 0.1241 0.7714
| 26> H -3.4747 2.0043 1.8621
| 27> H -4.4463 2.4932 0.4683
| 28> H -2.8943 3.2568 0.7369
| 29> H -3.6511 1.7255 -1.7391
| 30> H -4.2961 -1.4773 0.8566
| 31> H -2.0870 -0.3086 1.8603
| 32> H 0.4573 3.3626 -0.5452
| 33> H -1.2964 -1.1607 -0.3798
| 34> H -1.2718 0.7743 -2.0474
| 35> H 0.8479 -0.6734 1.0494
| 36> H 1.3527 0.5441 -1.4453
| 37> H 1.0850 -2.0482 -1.6807
| 38> H 0.4863 -3.8853 -0.4871
| 39> H 2.7677 -3.5116 -0.4352
| 40> H 2.7550 -2.3479 0.8771
| 41> H 6.2791 0.2174 -0.9616
| 42> H 3.1410 0.5192 0.2612
| 43> *
| 44> 
| 45>                          ****END OF INPUT****
================================================================================

                       *****************************
                       * Geometry Optimization Run *
                       *****************************

Geometry optimization settings:
Update method            Update   .... BFGS
Choice of coordinates    CoordSys .... Z-matrix Internals
Initial Hessian          InHess   .... Almoef's Model

Convergence Tolerances:
Energy Change            TolE     ....  5.0000e-06 Eh
Max. Gradient            TolMAXG  ....  3.0000e-04 Eh/bohr
RMS Gradient             TolRMSG  ....  1.0000e-04 Eh/bohr
Max. Displacement        TolMAXD  ....  4.0000e-03 bohr
RMS Displacement         TolRMSD  ....  2.0000e-03 bohr
Strict Convergence                ....  False
------------------------------------------------------------------------------
                        ORCA OPTIMIZATION COORDINATE SETUP
------------------------------------------------------------------------------

The optimization will be done in new redundant internal coordinates
Making redundant internal coordinates   ...  (new redundants) done
Evaluating the initial hessian          ...  (Almloef) done
Evaluating the coordinates              ...  done
Calculating the B-matrix                .... done
Calculating the G-matrix                .... done
Diagonalizing the G-matrix              .... done
Small eigenvalue found = 5.013e-03
Small eigenvalue found = 9.833e-03
Small eigenvalue found = 1.155e-02
Small eigenvalue found = 1.793e-02
Small eigenvalue found = 2.642e-02
The first mode is                       ....   87
The number of degrees of freedom        ....  114

    -----------------------------------------------------------------
                    Redundant Internal Coordinates


    -----------------------------------------------------------------
         Definition                    Initial Value    Approx d2E/dq
    -----------------------------------------------------------------
      1. B(C   1,C   0)                  1.5325         0.370124   
      2. B(O   2,C   1)                  1.4458         0.455868   
      3. B(C   3,C   1)                  1.5366         0.364563   
      4. B(O   4,C   3)                  1.2226         1.034920   
      5. B(O   5,C   3)                  1.3477         0.653581   
      6. B(C   6,C   1)                  1.5649         0.328579   
      7. B(O   7,C   6)                  1.4489         0.450704   
      8. B(C   8,C   6)                  1.5424         0.356923   
      9. B(O   9,C   8)                  1.2234         1.031931   
     10. B(O  10,C   8)                  1.3486         0.651612   
     11. B(C  11,C   6)                  1.5607         0.333720   
     12. B(O  12,C  11)                  1.4406         0.464613   
     13. B(C  13,C  11)                  1.5525         0.343944   
     14. B(O  14,C  13)                  1.4428         0.460877   
     15. B(C  15,C  13)                  1.5529         0.343494   
     16. B(O  16,C  15)                  1.4340         0.476135   
     17. B(C  17,C  15)                  1.5374         0.363543   
     18. B(O  18,C  17)                  1.4142         0.511919   
     19. B(P  19,O  18)                  1.5976         0.877232   
     20. B(O  20,P  19)                  1.4893         1.305866   
     21. B(O  21,P  19)                  1.5956         0.883886   
     22. B(O  22,P  19)                  1.5925         0.893884   
     23. B(H  23,C   0)                  1.0949         0.353658   
     24. B(H  24,C   0)                  1.0966         0.351450   
     25. B(H  25,C   0)                  1.0954         0.353071   
     26. B(H  26,O   2)                  0.9808         0.481729   
     27. B(H  27,O   5)                  0.9853         0.473731   
     28. B(H  28,O   7)                  0.9788         0.485268   
     29. B(H  29,O  10)                  0.9800         0.483151   
     30. B(H  30,C  11)                  1.0949         0.353661   
     31. B(H  31,O  12)                  0.9833         0.477333   
     32. B(H  32,C  13)                  1.0958         0.352553   
     33. B(H  33,O  14)                  0.9857         0.473107   
     34. B(H  34,C  15)                  1.0971         0.350856   
     35. B(H  35,O  16)                  0.9749         0.492257   
     36. B(H  36,C  17)                  1.0957         0.352684   
     37. B(H  37,C  17)                  1.0967         0.351357   
     38. B(H  38,O  21)                  0.9785         0.485785   
     39. B(H  39,H  29)                  3.9922         0.000002   
     40. B(H  39,O  22)                  0.9874         0.470118   
     41. A(C   1,C   0,H  23)          112.0304         0.322867   
     42. A(C   1,C   0,H  24)          110.7479         0.322536   
     43. A(H  23,C   0,H  25)          108.8006         0.289122   
     44. A(C   1,C   0,H  25)          111.4640         0.322780   
     45. A(H  24,C   0,H  25)          105.9838         0.288838   
     46. A(H  23,C   0,H  24)          107.5546         0.288913   
     47. A(C   3,C   1,C   6)          111.5802         0.354028   
     48. A(C   0,C   1,O   2)          108.0440         0.373038   
     49. A(O   2,C   1,C   6)          110.5811         0.365486   
     50. A(C   0,C   1,C   3)          107.0930         0.361267   
     51. A(O   2,C   1,C   3)          105.4324         0.372066   
     52. A(C   0,C   1,C   6)          113.6910         0.354937   
     53. A(C   1,O   2,H  26)          107.0167         0.346722   
     54. A(C   1,C   3,O   5)          114.8081         0.396115   
     55. A(O   4,C   3,O   5)          120.2327         0.474721   
     56. A(C   1,C   3,O   4)          124.9219         0.429784   
     57. A(C   3,O   5,H  27)          104.1358         0.367560   
     58. A(C   1,C   6,C   8)          108.3015         0.352760   
     59. A(O   7,C   6,C   8)          106.0070         0.369987   
     60. A(C   1,C   6,O   7)          110.2944         0.364774   
     61. A(C   8,C   6,C  11)          111.3919         0.353689   
     62. A(O   7,C   6,C  11)          108.1130         0.365745   
     63. A(C   1,C   6,C  11)          112.5378         0.348778   
     64. A(C   6,O   7,H  28)          108.6217         0.346485   
     65. A(C   6,C   8,O   9)          126.6496         0.427933   
     66. A(C   6,C   8,O  10)          114.6625         0.394438   
     67. A(O   9,C   8,O  10)          118.6514         0.474206   
     68. A(C   8,O  10,H  29)          103.6603         0.368613   
     69. A(C  13,C  11,H  30)          107.8279         0.319017   
     70. A(O  12,C  11,H  30)          106.2543         0.333192   
     71. A(C   6,C  11,H  30)          106.7785         0.317451   
     72. A(O  12,C  11,C  13)          107.2952         0.369565   
     73. A(C   6,C  11,C  13)          113.8067         0.351479   
     74. A(C   6,C  11,O  12)          114.4422         0.367655   
     75. A(C  11,O  12,H  31)          108.3005         0.347296   
     76. A(C  15,C  13,H  32)          108.3960         0.318785   
     77. A(O  14,C  13,H  32)          108.0877         0.332573   
     78. A(C  11,C  13,H  32)          110.0935         0.318854   
     79. A(O  14,C  13,C  15)          110.2599         0.368969   
     80. A(C  11,C  13,C  15)          111.3143         0.353200   
     81. A(C  11,C  13,O  14)          108.6362         0.369052   
     82. A(C  13,O  14,H  33)          103.9132         0.346306   
     83. A(C  13,C  15,H  34)          108.9427         0.318535   
     84. A(O  16,C  15,H  34)          108.2915         0.334108   
     85. A(C  17,C  15,H  34)          108.6404         0.321501   
     86. A(O  16,C  15,C  17)          109.0934         0.374686   
     87. A(C  13,C  15,C  17)          112.5795         0.356534   
     88. A(C  13,C  15,O  16)          109.2019         0.371041   
     89. A(C  15,O  16,H  35)          107.0175         0.350549   
     90. A(H  36,C  17,H  37)          106.2697         0.288777   
     91. A(O  18,C  17,H  37)          111.8872         0.338242   
     92. A(C  15,C  17,H  37)          110.5645         0.321576   
     93. A(C  15,C  17,H  36)          109.8605         0.321775   
     94. A(C  15,C  17,O  18)          110.5383         0.379410   
     95. A(O  18,C  17,H  36)          107.5765         0.338454   
     96. A(C  17,O  18,P  19)          117.8603         0.471000   
     97. A(O  18,P  19,O  21)          104.4790         0.558681   
     98. A(O  18,P  19,O  20)          115.4824         0.602059   
     99. A(O  21,P  19,O  22)          102.0867         0.560684   
    100. A(O  20,P  19,O  22)          115.4126         0.604248   
    101. A(O  18,P  19,O  22)          104.9512         0.559878   
    102. A(O  20,P  19,O  21)          112.9621         0.602938   
    103. A(P  19,O  21,H  38)          109.3630         0.414922   
    104. A(P  19,O  22,H  39)          109.9491         0.413337   
    105. D(C   3,C   1,C   0,H  25)   -170.5892         0.010951   
    106. D(C   6,C   1,C   0,H  24)   -176.5766         0.010951   
    107. D(O   2,C   1,C   0,H  24)     60.2836         0.010951   
    108. D(C   6,C   1,C   0,H  23)    -56.4956         0.010951   
    109. D(C   6,C   1,C   0,H  25)     65.6903         0.010951   
    110. D(C   3,C   1,C   0,H  24)    -52.8562         0.010951   
    111. D(O   2,C   1,C   0,H  25)    -57.4495         0.010951   
    112. D(C   3,C   1,C   0,H  23)     67.2248         0.010951   
    113. D(O   2,C   1,C   0,H  23)   -179.6354         0.010951   
    114. D(H  26,O   2,C   1,C   3)     45.7183         0.016369   
    115. D(H  26,O   2,C   1,C   6)    166.4642         0.016369   
    116. D(H  26,O   2,C   1,C   0)    -68.5255         0.016369   
    117. D(O   4,C   3,C   1,O   2)    -17.3031         0.009974   
    118. D(O   4,C   3,C   1,C   0)     97.5992         0.009974   
    119. D(O   4,C   3,C   1,C   6)   -137.3931         0.009974   
    120. D(O   5,C   3,C   1,C   6)     44.8353         0.009974   
    121. D(O   5,C   3,C   1,O   2)    164.9253         0.009974   
    122. D(O   5,C   3,C   1,C   0)    -80.1725         0.009974   
    123. D(H  27,O   5,C   3,O   4)      0.6153         0.031598   
    124. D(H  27,O   5,C   3,C   1)    178.5006         0.031598   
    125. D(C  11,C   6,C   1,C   3)     58.3855         0.008800   
    126. D(C  11,C   6,C   1,O   2)    -58.6274         0.008800   
    127. D(C   8,C   6,C   1,C   3)   -178.0277         0.008800   
    128. D(C   8,C   6,C   1,O   2)     64.9595         0.008800   
    129. D(C   8,C   6,C   1,C   0)    -56.7813         0.008800   
    130. D(C  11,C   6,C   1,C   0)    179.6318         0.008800   
    131. D(O   7,C   6,C   1,O   2)   -179.4471         0.008800   
    132. D(O   7,C   6,C   1,C   3)    -62.4343         0.008800   
    133. D(O   7,C   6,C   1,C   0)     58.8121         0.008800   
    134. D(H  28,O   7,C   6,C   8)    164.2380         0.015998   
    135. D(H  28,O   7,C   6,C   1)     47.2121         0.015998   
    136. D(H  28,O   7,C   6,C  11)    -76.2188         0.015998   
    137. D(O  10,C   8,C   6,C  11)     50.9043         0.009593   
    138. D(O  10,C   8,C   6,O   7)    168.2748         0.009593   
    139. D(O  10,C   8,C   6,C   1)    -73.3695         0.009593   
    140. D(O   9,C   8,C   6,C  11)   -131.3393         0.009593   
    141. D(O   9,C   8,C   6,O   7)    -13.9688         0.009593   
    142. D(O   9,C   8,C   6,C   1)    104.3869         0.009593   
    143. D(H  29,O  10,C   8,O   9)      3.4470         0.031393   
    144. D(H  29,O  10,C   8,C   6)   -178.6042         0.031393   
    145. D(H  30,C  11,C   6,C   8)    175.5754         0.009049   
    146. D(H  30,C  11,C   6,O   7)     59.4884         0.009049   
    147. D(H  30,C  11,C   6,C   1)    -62.5742         0.009049   
    148. D(C  13,C  11,C   6,C   8)     56.7243         0.009049   
    149. D(C  13,C  11,C   6,O   7)    -59.3627         0.009049   
    150. D(C  13,C  11,C   6,C   1)    178.5747         0.009049   
    151. D(O  12,C  11,C   6,C   8)    -67.1558         0.009049   
    152. D(O  12,C  11,C   6,C   1)     54.6946         0.009049   
    153. D(O  12,C  11,C   6,O   7)    176.7572         0.009049   
    154. D(H  31,O  12,C  11,H  30)     99.4657         0.017010   
    155. D(H  31,O  12,C  11,C  13)   -145.3969         0.017010   
    156. D(H  31,O  12,C  11,C   6)    -18.1027         0.017010   
    157. D(H  32,C  13,C  11,H  30)    -79.4224         0.009559   
    158. D(H  32,C  13,C  11,O  12)    166.4932         0.009559   
    159. D(H  32,C  13,C  11,C   6)     38.8278         0.009559   
    160. D(C  15,C  13,C  11,H  30)     40.8056         0.009559   
    161. D(C  15,C  13,C  11,O  12)    -73.2789         0.009559   
    162. D(C  15,C  13,C  11,C   6)    159.0558         0.009559   
    163. D(O  14,C  13,C  11,H  30)    162.3966         0.009559   
    164. D(O  14,C  13,C  11,O  12)     48.3122         0.009559   
    165. D(O  14,C  13,C  11,C   6)    -79.3531         0.009559   
    166. D(H  33,O  14,C  13,C  15)     81.1099         0.016734   
    167. D(H  33,O  14,C  13,C  11)    -41.1240         0.016734   
    168. D(H  33,O  14,C  13,H  32)   -160.5671         0.016734   
    169. D(H  34,C  15,C  13,H  32)    179.4526         0.009536   
    170. D(H  34,C  15,C  13,O  14)    -62.4137         0.009536   
    171. D(H  34,C  15,C  13,C  11)     58.2275         0.009536   
    172. D(C  17,C  15,C  13,H  32)    -59.9700         0.009536   
    173. D(C  17,C  15,C  13,O  14)     58.1637         0.009536   
    174. D(C  17,C  15,C  13,C  11)    178.8050         0.009536   
    175. D(O  16,C  15,C  13,H  32)     61.3597         0.009536   
    176. D(O  16,C  15,C  13,O  14)    179.4934         0.009536   
    177. D(O  16,C  15,C  13,C  11)    -59.8653         0.009536   
    178. D(H  35,O  16,C  15,H  34)     57.1150         0.017878   
    179. D(H  35,O  16,C  15,C  17)    -60.9620         0.017878   
    180. D(H  35,O  16,C  15,C  13)    175.6154         0.017878   
    181. D(H  37,C  17,C  15,H  34)    172.8627         0.010589   
    182. D(H  37,C  17,C  15,O  16)    -69.2797         0.010589   
    183. D(H  37,C  17,C  15,C  13)     52.1118         0.010589   
    184. D(H  36,C  17,C  15,H  34)    -70.1582         0.010589   
    185. D(H  36,C  17,C  15,O  16)     47.6994         0.010589   
    186. D(H  36,C  17,C  15,C  13)    169.0909         0.010589   
    187. D(O  18,C  17,C  15,H  34)     48.4096         0.010589   
    188. D(O  18,C  17,C  15,O  16)    166.2671         0.010589   
    189. D(O  18,C  17,C  15,C  13)    -72.3414         0.010589   
    190. D(P  19,O  18,C  17,H  37)      3.2681         0.020751   
    191. D(P  19,O  18,C  17,H  36)   -113.0890         0.020751   
    192. D(P  19,O  18,C  17,C  15)    126.9617         0.020751   
    193. D(O  22,P  19,O  18,C  17)    -62.0401         0.013309   
    194. D(O  21,P  19,O  18,C  17)   -169.0654         0.013309   
    195. D(O  20,P  19,O  18,C  17)     66.2254         0.013309   
    196. D(H  38,O  21,P  19,O  22)     97.4399         0.013502   
    197. D(H  38,O  21,P  19,O  20)    -27.1263         0.013502   
    198. D(H  38,O  21,P  19,O  18)   -153.4250         0.013502   
    199. D(H  39,O  22,P  19,O  21)     68.3221         0.013796   
    200. D(H  39,O  22,P  19,O  20)   -168.7595         0.013796   
    201. D(H  39,O  22,P  19,O  18)    -40.4519         0.013796   
    -----------------------------------------------------------------

Number of atoms                         .... 40
Number of degrees of freedom            .... 201

         *************************************************************
         *                GEOMETRY OPTIMIZATION CYCLE   1            *
         *************************************************************
---------------------------------
CARTESIAN COORDINATES (ANGSTROEM)
---------------------------------
  C    -3.422100    2.299700    0.809100
  C    -2.755700    1.225100   -0.056800
  O    -2.723800    1.704900   -1.420300
  C    -3.696600    0.010300   -0.072700
  O    -4.496700   -0.243700   -0.961600
  O    -3.623000   -0.776300    1.019200
  C    -1.318300    0.833600    0.422400
  O    -1.359300    0.341600    1.784600
  C    -0.454700    2.111100    0.457400
  O    -0.114700    2.735700    1.452900
  O    -0.093300    2.579400   -0.754500
  C    -0.668900   -0.268200   -0.472100
  O    -0.627100    0.051900   -1.876100
  C     0.772500   -0.654200   -0.043600
  O     1.684600    0.348500   -0.538000
  C     1.166900   -2.054500   -0.586700
  O     0.254300   -3.033900   -0.072700
  C     2.601300   -2.453700   -0.203600
  O     3.540800   -1.701100   -0.945900
  P     4.676000   -0.918900   -0.138500
  O     5.659500   -1.777400    0.578300
  O     5.355200    0.031800   -1.225100
  O     3.888400    0.124100    0.771400
  H    -3.474700    2.004300    1.862100
  H    -4.446300    2.493200    0.468300
  H    -2.894300    3.256800    0.736900
  H    -3.651100    1.725500   -1.739100
  H    -4.296100   -1.477300    0.856600
  H    -2.087000   -0.308600    1.860300
  H     0.457300    3.362600   -0.545200
  H    -1.296400   -1.160700   -0.379800
  H    -1.271800    0.774300   -2.047400
  H     0.847900   -0.673400    1.049400
  H     1.352700    0.544100   -1.445300
  H     1.085000   -2.048200   -1.680700
  H     0.486300   -3.885300   -0.487100
  H     2.767700   -3.511600   -0.435200
  H     2.755000   -2.347900    0.877100
  H     6.279100    0.217400   -0.961600
  H     3.141000    0.519200    0.261200

----------------------------
CARTESIAN COORDINATES (A.U.)
----------------------------
  NO LB    ZA    FRAG    MASS        X           Y           Z
   0 C   6.0000    0    12.011   -6.466832    4.345803    1.528977
   1 C   6.0000    0    12.011   -5.207518    2.315103   -0.107336
   2 O   8.0000    0    15.999   -5.147236    3.221794   -2.683978
   3 C   6.0000    0    12.011   -6.985562    0.019464   -0.137383
   4 O   8.0000    0    15.999   -8.497532   -0.460526   -1.817161
   5 O   8.0000    0    15.999   -6.846478   -1.466994    1.926009
   6 C   6.0000    0    12.011   -2.491226    1.575276    0.798220
   7 O   8.0000    0    15.999   -2.568705    0.645530    3.372405
   8 C   6.0000    0    12.011   -0.859258    3.989401    0.864361
   9 O   8.0000    0    15.999   -0.216752    5.169724    2.745583
  10 O   8.0000    0    15.999   -0.176311    4.874360   -1.425798
  11 C   6.0000    0    12.011   -1.264038   -0.506825   -0.892140
  12 O   8.0000    0    15.999   -1.185047    0.098077   -3.545315
  13 C   6.0000    0    12.011    1.459813   -1.236259   -0.082392
  14 O   8.0000    0    15.999    3.183433    0.658570   -1.016673
  15 C   6.0000    0    12.011    2.205121   -3.882442   -1.108702
  16 O   8.0000    0    15.999    0.480557   -5.733240   -0.137383
  17 C   6.0000    0    12.011    4.915745   -4.636821   -0.384748
  18 O   8.0000    0    15.999    6.691142   -3.214613   -1.787492
  19 P  15.0000    0    30.974    8.836359   -1.736469   -0.261727
  20 O   8.0000    0    15.999   10.694905   -3.358799    1.092829
  21 O   8.0000    0    15.999   10.119861    0.060093   -2.315103
  22 O   8.0000    0    15.999    7.348011    0.234515    1.457735
  23 H   1.0000    0     1.008   -6.566231    3.787578    3.518859
  24 H   1.0000    0     1.008   -8.402289    4.711465    0.884959
  25 H   1.0000    0     1.008   -5.469434    6.154460    1.392539
  26 H   1.0000    0     1.008   -6.899579    3.260722   -3.286423
  27 H   1.0000    0     1.008   -8.118452   -2.791692    1.618739
  28 H   1.0000    0     1.008   -3.943858   -0.583169    3.515458
  29 H   1.0000    0     1.008    0.864172    6.354393   -1.030279
  30 H   1.0000    0     1.008   -2.449841   -2.193405   -0.717718
  31 H   1.0000    0     1.008   -2.403354    1.463215   -3.869025
  32 H   1.0000    0     1.008    1.602299   -1.272542    1.983079
  33 H   1.0000    0     1.008    2.556233    1.028200   -2.731221
  34 H   1.0000    0     1.008    2.050353   -3.870537   -3.176063
  35 H   1.0000    0     1.008    0.918974   -7.342153   -0.920486
  36 H   1.0000    0     1.008    5.230195   -6.635962   -0.822409
  37 H   1.0000    0     1.008    5.206195   -4.436888    1.657479
  38 H   1.0000    0     1.008   11.865779    0.410826   -1.817161
  39 H   1.0000    0     1.008    5.935630    0.981146    0.493596

      -----------------------------------------------------------      
     |                   =====================                   |     
     |                           x T B                           |     
     |                   =====================                   |     
     |                         S. Grimme                         |     
     |          Mulliken Center for Theoretical Chemistry        |     
     |                    University of Bonn                     |     
      -----------------------------------------------------------      

   * xtb version 6.5.1 (579679a) compiled by 'ehlert@majestix' on 2022-07-11

   xtb is free software: you can redistribute it and/or modify it under
   the terms of the GNU Lesser General Public License as published by
   the Free Software Foundation, either version 3 of the License, or
   (at your option) any later version.
   
   xtb is distributed in the hope that it will be useful,
   but WITHOUT ANY WARRANTY; without even the implied warranty of
   MERCHANTABILITY or FITNESS FOR A PARTICULAR PURPOSE.  See the
   GNU Lesser General Public License for more details.
   
   Cite this work as:
   * C. Bannwarth, E. Caldeweyher, S. Ehlert, A. Hansen, P. Pracht,
     J. Seibert, S. Spicher, S. Grimme, WIREs Comput. Mol. Sci., 2020, 11,
     e01493. DOI: 10.1002/wcms.1493
   
   for GFN2-xTB:
   * C. Bannwarth, S. Ehlert and S. Grimme., J. Chem. Theory Comput., 2019,
     15, 1652-1671. DOI: 10.1021/acs.jctc.8b01176
   for GFN1-xTB:
   * S. Grimme, C. Bannwarth, P. Shushkov, J. Chem. Theory Comput., 2017,
     13, 1989-2009. DOI: 10.1021/acs.jctc.7b00118
   for GFN0-xTB:
   * P. Pracht, E. Caldeweyher, S. Ehlert, S. Grimme, ChemRxiv, 2019, preprint.
     DOI: 10.26434/chemrxiv.8326202.v1
   for GFN-FF:
   * S. Spicher and S. Grimme, Angew. Chem. Int. Ed., 2020, 59, 15665-15673.
     DOI: 10.1002/anie.202004239
   
   for ALPB and GBSA implicit solvation:
   * S. Ehlert, M. Stahn, S. Spicher, S. Grimme, J. Chem. Theory Comput.,
     2021, 17, 4250-4261. DOI: 10.1021/acs.jctc.1c00471
   
   for DFT-D4:
   * E. Caldeweyher, C. Bannwarth and S. Grimme, J. Chem. Phys., 2017,
     147, 034112. DOI: 10.1063/1.4993215
   * E. Caldeweyher, S. Ehlert, A. Hansen, H. Neugebauer, S. Spicher,
     C. Bannwarth and S. Grimme, J. Chem. Phys., 2019, 150, 154122.
     DOI: 10.1063/1.5090222
   * E. Caldeweyher, J.-M. Mewes, S. Ehlert and S. Grimme, Phys. Chem. Chem. Phys.
     2020, 22, 8499-8512. DOI: 10.1039/D0CP00502A
   
   for sTDA-xTB:
   * S. Grimme and C. Bannwarth, J. Chem. Phys., 2016, 145, 054103.
     DOI: 10.1063/1.4959605
   
   in the mass-spec context:
   * V. Asgeirsson, C. Bauer and S. Grimme, Chem. Sci., 2017, 8, 4879.
     DOI: 10.1039/c7sc00601b
   * J. Koopman and S. Grimme, ACS Omega 2019, 4, 12, 15120-15133.
     DOI: 10.1021/acsomega.9b02011
   
   for metadynamics refer to:
   * S. Grimme, J. Chem. Theory Comput., 2019, 155, 2847-2862
     DOI: 10.1021/acs.jctc.9b00143
   
   for SPH calculations refer to:
   * S. Spicher and S. Grimme, J. Chem. Theory Comput., 2021, 17, 1701-1714
     DOI: 10.1021/acs.jctc.0c01306
   
   with help from (in alphabetical order)
   P. Atkinson, C. Bannwarth, F. Bohle, G. Brandenburg, E. Caldeweyher
   M. Checinski, S. Dohm, S. Ehlert, S. Ehrlich, I. Gerasimov, C. Hölzer
   A. Katbashev, J. Koopman, C. Lavigne, S. Lehtola, F. März, M. Müller,
   F. Musil, H. Neugebauer, J. Pisarek, C. Plett, P. Pracht, F. Pultar,
   J. Seibert, P. Shushkov, S. Spicher, M. Stahn, M. Steiner, T. Strunk,
   J. Stückrath, T. Rose, and J. Unsleber
   
 * started run on 2023/12/06 at 23:46:16.594     

           -------------------------------------------------
          |                Calculation Setup                |
           -------------------------------------------------

          program call               : otool_xtb /tmp/30_XTB.xyz --grad -c 0 -u 0 -P 1 --namespace /tmp/30 --input /tmp/30_XTB.input.tmp --acc 1.000000
          calculation namespace      : /tmp/30
          coordinate file            : /tmp/30_XTB.xyz
          omp threads                :                     1

   ID    Z sym.   atoms
    1    6 C      1, 2, 4, 7, 9, 12, 14, 16, 18
    2    8 O      3, 5, 6, 8, 10, 11, 13, 15, 17, 19, 21-23
    3   15 P      20
    4    1 H      24-40

           -------------------------------------------------
          |                 G F N 2 - x T B                 |
           -------------------------------------------------

        Reference                      10.1021/acs.jctc.8b01176
      * Hamiltonian:
        H0-scaling (s, p, d)           1.850000    2.230000    2.230000
        zeta-weighting                 0.500000
      * Dispersion:
        s8                             2.700000
        a1                             0.520000
        a2                             5.000000
        s9                             5.000000
      * Repulsion:
        kExp                           1.500000    1.000000
        rExp                           1.000000
      * Coulomb:
        alpha                          2.000000
        third order                    shell-resolved
        anisotropic                    true
        a3                             3.000000
        a5                             4.000000
        cn-shift                       1.200000
        cn-exp                         4.000000
        max-rad                        5.000000


          ...................................................
          :                      SETUP                      :
          :.................................................:
          :  # basis functions                 115          :
          :  # atomic orbitals                 114          :
          :  # shells                           64          :
          :  # electrons                       136          :
          :  max. iterations                   250          :
          :  Hamiltonian                  GFN2-xTB          :
          :  restarted?                      false          :
          :  GBSA solvation                  false          :
          :  PC potential                    false          :
          :  electronic temp.          300.0000000     K    :
          :  accuracy                    1.0000000          :
          :  -> integral cutoff          0.2500000E+02      :
          :  -> integral neglect         0.1000000E-07      :
          :  -> SCF convergence          0.1000000E-05 Eh   :
          :  -> wf. convergence          0.1000000E-03 e    :
          :  Broyden damping             0.4000000          :
          ...................................................

 iter      E             dE          RMSdq      gap      omega  full diag
   1    -83.8583371 -0.838583E+02  0.594E+00    4.94       0.0  T
   2    -83.9732493 -0.114912E+00  0.326E+00    3.51       1.0  T
   3    -83.9800843 -0.683498E-02  0.131E+00    3.38       1.0  T
   4    -83.9981770 -0.180926E-01  0.487E-01    2.91       1.0  T
   5    -83.9992565 -0.107959E-02  0.167E-01    3.17       1.0  T
   6    -83.9994443 -0.187731E-03  0.719E-02    3.12       1.0  T
   7    -83.9994534 -0.916248E-05  0.274E-02    3.14       1.0  T
   8    -83.9994626 -0.917470E-05  0.944E-03    3.14       1.7  T
   9    -83.9994632 -0.562426E-06  0.429E-03    3.14       3.7  T
  10    -83.9994633 -0.116049E-06  0.132E-03    3.14      12.0  T
  11    -83.9994633 -0.942407E-08  0.623E-04    3.14      25.4  T
  12    -83.9994633 -0.167286E-08  0.166E-04    3.14      95.2  T

   *** convergence criteria satisfied after 12 iterations ***

         #    Occupation            Energy/Eh            Energy/eV
      -------------------------------------------------------------
         1        2.0000           -0.7967633             -21.6810
       ...           ...                  ...                  ...
        62        2.0000           -0.4480283             -12.1915
        63        2.0000           -0.4464288             -12.1479
        64        2.0000           -0.4380868             -11.9209
        65        2.0000           -0.4301665             -11.7054
        66        2.0000           -0.4257558             -11.5854
        67        2.0000           -0.4160379             -11.3210
        68        2.0000           -0.4132015             -11.2438 (HOMO)
        69                         -0.2976575              -8.0997 (LUMO)
        70                         -0.2674262              -7.2770
        71                         -0.0884621              -2.4072
        72                         -0.0800344              -2.1778
        73                         -0.0547408              -1.4896
       ...                                ...                  ...
       114                          1.3043245              35.4925
      -------------------------------------------------------------
                  HL-Gap            0.1155441 Eh            3.1441 eV
             Fermi-level           -0.3554295 Eh           -9.6717 eV

 SCC (total)                   0 d,  0 h,  0 min,  0.064 sec
 SCC setup                      ...        0 min,  0.000 sec (  0.443%)
 Dispersion                     ...        0 min,  0.000 sec (  0.625%)
 classical contributions        ...        0 min,  0.000 sec (  0.135%)
 integral evaluation            ...        0 min,  0.009 sec ( 13.962%)
 iterations                     ...        0 min,  0.027 sec ( 41.203%)
 molecular gradient             ...        0 min,  0.028 sec ( 43.188%)
 printout                       ...        0 min,  0.000 sec (  0.413%)

         :::::::::::::::::::::::::::::::::::::::::::::::::::::
         ::                     SUMMARY                     ::
         :::::::::::::::::::::::::::::::::::::::::::::::::::::
         :: total energy             -83.472999027272 Eh    ::
         :: gradient norm              0.121790173584 Eh/a0 ::
         :: HOMO-LUMO gap              3.144114573843 eV    ::
         ::.................................................::
         :: SCC energy               -83.999463302940 Eh    ::
         :: -> isotropic ES            0.319610209763 Eh    ::
         :: -> anisotropic ES         -0.009080463622 Eh    ::
         :: -> anisotropic XC         -0.009657300020 Eh    ::
         :: -> dispersion             -0.042368670092 Eh    ::
         :: repulsion energy           0.525844322249 Eh    ::
         :: add. restraining           0.000000000000 Eh    ::
         :: total charge               0.000000000000 e     ::
         :::::::::::::::::::::::::::::::::::::::::::::::::::::


Property printout bound to 'properties.out'

           -------------------------------------------------
          | TOTAL ENERGY              -83.472999027272 Eh   |
          | GRADIENT NORM               0.121790173584 Eh/α |
          | HOMO-LUMO GAP               3.144114573843 eV   |
           -------------------------------------------------

------------------------------------------------------------------------
 * finished run on 2023/12/06 at 23:46:16.675     
------------------------------------------------------------------------
 total:
 * wall-time:     0 d,  0 h,  0 min,  0.080 sec
 *  cpu-time:     0 d,  0 h,  0 min,  0.080 sec
 * ratio c/w:     0.997 speedup
 SCF:
 * wall-time:     0 d,  0 h,  0 min,  0.065 sec
 *  cpu-time:     0 d,  0 h,  0 min,  0.064 sec
 * ratio c/w:     0.991 speedup


-------------------------   --------------------
FINAL SINGLE POINT ENERGY       -83.472999027270
-------------------------   --------------------

------------------------------------------------------------------------------
                         ORCA GEOMETRY RELAXATION STEP
------------------------------------------------------------------------------

Reading the OPT-File                    .... done
Getting information on internals        .... done
Copying old internal coords+grads       .... done
Making the new internal coordinates     .... (new redundants).... done
Validating the new internal coordinates .... (new redundants).... done
Calculating the B-matrix                .... done
Calculating the G,G- and P matrices     .... done
Transforming gradient to internals      .... done
Projecting the internal gradient        .... done
Number of atoms                         ....  40
Number of internal coordinates          .... 201
Current Energy                          ....   -83.472999027 Eh
Current gradient norm                   ....     0.121790174 Eh/bohr
Maximum allowed component of the step   ....  0.300
Current trust radius                    ....  0.300
Evaluating the initial hessian          ....  (Almloef) done
Projecting the Hessian                  .... done
Forming the augmented Hessian           .... done
Diagonalizing the augmented Hessian     .... done
Last element of RFO vector              ....  0.900120080
Lowest eigenvalues of augmented Hessian:
 -0.034072478  0.001108109  0.008982756  0.009441274  0.009558824
Length of the computed step             ....  0.483981951
Warning: the length of the step is outside the trust region - taking restricted step instead
The input lambda is                     ....    -0.034072
   iter:   1  x=   -0.054290  g=    7.134435 f(x)=     0.144239
   iter:   2  x=   -0.074163  g=    2.742171 f(x)=     0.054495
   iter:   3  x=   -0.084695  g=    1.432252 f(x)=     0.015085
   iter:   4  x=   -0.086478  g=    1.087651 f(x)=     0.001940
   iter:   5  x=   -0.086518  g=    1.041851 f(x)=     0.000041
   iter:   6  x=   -0.086518  g=    1.040866 f(x)=     0.000000
   iter:   7  x=   -0.086518  g=    1.040866 f(x)=     0.000000
The output lambda is                    ....    -0.086518 (7 iterations)
The final length of the internal step   ....  0.300000000
Converting the step to cartesian space:
 Initial RMS(Int)=    0.0211603685
Transforming coordinates:
 Iter   0:  RMS(Cart)=    0.1215598857 RMS(Int)=    0.6238147115
 Iter   1:  RMS(Cart)=    0.0135038136 RMS(Int)=    0.0042280712
 Iter   2:  RMS(Cart)=    0.0008544496 RMS(Int)=    0.0002669254
 Iter   3:  RMS(Cart)=    0.0000796856 RMS(Int)=    0.0000259508
 Iter   4:  RMS(Cart)=    0.0000080547 RMS(Int)=    0.0000027765
 Iter   5:  RMS(Cart)=    0.0000007534 RMS(Int)=    0.0000002624
 Iter   6:  RMS(Cart)=    0.0000001034 RMS(Int)=    0.0000000363
 Iter   7:  RMS(Cart)=    0.0000000074 RMS(Int)=    0.0000000030
done
Storing new coordinates                 .... done

                                .--------------------.
          ----------------------|Geometry convergence|-------------------------
          Item                value                   Tolerance       Converged
          ---------------------------------------------------------------------
          RMS gradient        0.0081015317            0.0001000000      NO
          MAX gradient        0.0409000088            0.0003000000      NO
          RMS step            0.0211603685            0.0020000000      NO
          MAX step            0.0841765402            0.0040000000      NO
          ........................................................
          Max(Bonds)      0.0301      Max(Angles)    2.62
          Max(Dihed)        4.82      Max(Improp)    0.00
          ---------------------------------------------------------------------

The optimization has not yet converged - more geometry cycles are needed


    ---------------------------------------------------------------------------
                         Redundant Internal Coordinates
                            (Angstroem and degrees)

        Definition                    Value    dE/dq     Step     New-Value
    ----------------------------------------------------------------------------
     1. B(C   1,C   0)                1.5325  0.003262 -0.0038    1.5287   
     2. B(O   2,C   1)                1.4458  0.016633 -0.0162    1.4296   
     3. B(C   3,C   1)                1.5366  0.002004 -0.0024    1.5343   
     4. B(O   4,C   3)                1.2226  0.035140 -0.0166    1.2060   
     5. B(O   5,C   3)                1.3477  0.006356 -0.0045    1.3432   
     6. B(C   6,C   1)                1.5649  0.006729 -0.0086    1.5564   
     7. B(O   7,C   6)                1.4489  0.030589 -0.0301    1.4188   
     8. B(C   8,C   6)                1.5424  0.012602 -0.0150    1.5274   
     9. B(O   9,C   8)                1.2234  0.040900 -0.0194    1.2041   
    10. B(O  10,C   8)                1.3486  0.010165 -0.0072    1.3413   
    11. B(C  11,C   6)                1.5607  0.013187 -0.0164    1.5443   
    12. B(O  12,C  11)                1.4406  0.019286 -0.0185    1.4221   
    13. B(C  13,C  11)                1.5525  0.016931 -0.0206    1.5319   
    14. B(O  14,C  13)                1.4428  0.024924 -0.0241    1.4187   
    15. B(C  15,C  13)                1.5529  0.012870 -0.0156    1.5372   
    16. B(O  16,C  15)                1.4340  0.011998 -0.0113    1.4227   
    17. B(C  17,C  15)                1.5374 -0.002895  0.0036    1.5410   
    18. B(O  18,C  17)                1.4142  0.003221 -0.0029    1.4114   
    19. B(P  19,O  18)                1.5976 -0.008329  0.0046    1.6022   
    20. B(O  20,P  19)                1.4893  0.032438 -0.0123    1.4770   
    21. B(O  21,P  19)                1.5956 -0.000032  0.0000    1.5956   
    22. B(O  22,P  19)                1.5925  0.002107 -0.0012    1.5913   
    23. B(H  23,C   0)                1.0949  0.004809 -0.0058    1.0891   
    24. B(H  24,C   0)                1.0966  0.003548 -0.0043    1.0923   
    25. B(H  25,C   0)                1.0954  0.005139 -0.0062    1.0892   
    26. B(H  26,O   2)                0.9808  0.011085 -0.0103    0.9705   
    27. B(H  27,O   5)                0.9853  0.007605 -0.0072    0.9782   
    28. B(H  28,O   7)                0.9788  0.011578 -0.0107    0.9681   
    29. B(H  29,O  10)                0.9800  0.006772 -0.0063    0.9737   
    30. B(H  30,C  11)                1.0949 -0.003849  0.0046    1.0995   
    31. B(H  31,O  12)                0.9833  0.009731 -0.0091    0.9741   
    32. B(H  32,C  13)                1.0958  0.001895 -0.0023    1.0935   
    33. B(H  33,O  14)                0.9857  0.009243 -0.0087    0.9770   
    34. B(H  34,C  15)                1.0971 -0.001675  0.0020    1.0991   
    35. B(H  35,O  16)                0.9749  0.009882 -0.0090    0.9659   
    36. B(H  36,C  17)                1.0957 -0.001326  0.0016    1.0973   
    37. B(H  37,C  17)                1.0967  0.000493 -0.0006    1.0961   
    38. B(H  38,O  21)                0.9785  0.019404 -0.0179    0.9606   
    39. B(H  39,H  29)                3.9922 -0.003613  0.0208    4.0130   
    40. B(H  39,O  22)                0.9874  0.010331 -0.0100    0.9774   
    41. A(C   1,C   0,H  23)          112.03  0.002380   -0.43    111.60   
    42. A(C   1,C   0,H  24)          110.75  0.003406   -0.39    110.36   
    43. A(H  23,C   0,H  25)          108.80 -0.002104    0.08    108.88   
    44. A(C   1,C   0,H  25)          111.46  0.004642   -0.71    110.75   
    45. A(H  24,C   0,H  25)          105.98 -0.005345    0.94    106.92   
    46. A(H  23,C   0,H  24)          107.55 -0.003744    0.63    108.19   
    47. A(C   3,C   1,C   6)          111.58 -0.008895    1.66    113.24   
    48. A(C   0,C   1,O   2)          108.04 -0.007234    1.14    109.18   
    49. A(O   2,C   1,C   6)          110.58  0.006103   -1.39    109.19   
    50. A(C   0,C   1,C   3)          107.09  0.002412   -0.14    106.96   
    51. A(O   2,C   1,C   3)          105.43  0.001228    0.03    105.46   
    52. A(C   0,C   1,C   6)          113.69  0.005923   -1.18    112.51   
    53. A(C   1,O   2,H  26)          107.02 -0.001827    0.24    107.26   
    54. A(C   1,C   3,O   5)          114.81 -0.010443    1.22    116.02   
    55. A(O   4,C   3,O   5)          120.23 -0.004219    0.41    120.64   
    56. A(C   1,C   3,O   4)          124.92  0.014715   -1.66    123.27   
    57. A(C   3,O   5,H  27)          104.14 -0.015004    1.89    106.03   
    58. A(C   1,C   6,C   8)          108.30 -0.003033    0.41    108.72   
    59. A(O   7,C   6,C   8)          106.01  0.002784   -0.71    105.30   
    60. A(C   1,C   6,O   7)          110.29 -0.002576    0.95    111.25   
    61. A(C   8,C   6,C  11)          111.39  0.004282   -1.12    110.27   
    62. A(O   7,C   6,C  11)          108.11 -0.001917    0.37    108.49   
    63. A(C   1,C   6,C  11)          112.54  0.000573    0.05    112.59   
    64. A(C   6,O   7,H  28)          108.62 -0.001959    0.26    108.88   
    65. A(C   6,C   8,O   9)          126.65  0.007870   -0.79    125.86   
    66. A(C   6,C   8,O  10)          114.66  0.008421   -0.91    113.75   
    67. A(O   9,C   8,O  10)          118.65 -0.016403    1.76    120.41   
    68. A(C   8,O  10,H  29)          103.66 -0.012127    1.54    105.20   
    69. A(C  13,C  11,H  30)          107.83 -0.005164    0.96    108.79   
    70. A(O  12,C  11,H  30)          106.25 -0.000536    1.00    107.25   
    71. A(C   6,C  11,H  30)          106.78 -0.003969    0.95    107.73   
    72. A(O  12,C  11,C  13)          107.30 -0.001200   -0.36    106.93   
    73. A(C   6,C  11,C  13)          113.81  0.014646   -2.62    111.18   
    74. A(C   6,C  11,O  12)          114.44 -0.004910    0.39    114.83   
    75. A(C  11,O  12,H  31)          108.30  0.000197   -0.03    108.27   
    76. A(C  15,C  13,H  32)          108.40 -0.001208    0.65    109.05   
    77. A(O  14,C  13,H  32)          108.09 -0.001553    0.46    108.55   
    78. A(C  11,C  13,H  32)          110.09 -0.000434    0.01    110.11   
    79. A(O  14,C  13,C  15)          110.26 -0.003921    0.60    110.86   
    80. A(C  11,C  13,C  15)          111.31  0.000423   -0.31    111.00   
    81. A(C  11,C  13,O  14)          108.64  0.006570   -1.39    107.24   
    82. A(C  13,O  14,H  33)          103.91 -0.002620    0.35    104.26   
    83. A(C  13,C  15,H  34)          108.94  0.003103   -0.63    108.31   
    84. A(O  16,C  15,H  34)          108.29 -0.003605    0.60    108.89   
    85. A(C  17,C  15,H  34)          108.64  0.001254    0.09    108.73   
    86. A(O  16,C  15,C  17)          109.09  0.000232   -0.00    109.09   
    87. A(C  13,C  15,C  17)          112.58 -0.007801    1.23    113.81   
    88. A(C  13,C  15,O  16)          109.20  0.006854   -1.28    107.92   
    89. A(C  15,O  16,H  35)          107.02 -0.002763    0.36    107.38   
    90. A(H  36,C  17,H  37)          106.27 -0.003151    0.48    106.75   
    91. A(O  18,C  17,H  37)          111.89  0.005673   -0.70    111.19   
    92. A(C  15,C  17,H  37)          110.56 -0.001909    0.44    111.01   
    93. A(C  15,C  17,H  36)          109.86  0.008410   -1.40    108.46   
    94. A(C  15,C  17,O  18)          110.54 -0.008459    1.13    111.67   
    95. A(O  18,C  17,H  36)          107.58 -0.000025   -0.04    107.54   
    96. A(C  17,O  18,P  19)          117.86  0.001686   -0.18    117.68   
    97. A(O  18,P  19,O  21)          104.48  0.022639   -2.50    101.98   
    98. A(O  18,P  19,O  20)          115.48 -0.000321   -0.30    115.18   
    99. A(O  21,P  19,O  22)          102.09 -0.014535    1.78    103.87   
   100. A(O  20,P  19,O  22)          115.41  0.011470   -0.89    114.53   
   101. A(O  18,P  19,O  22)          104.95 -0.014772    1.72    106.67   
   102. A(O  20,P  19,O  21)          112.96 -0.005318    0.33    113.29   
   103. A(P  19,O  21,H  38)          109.36  0.005626   -0.64    108.72   
   104. A(P  19,O  22,H  39)          109.95 -0.004270    0.47    110.42   
   105. D(C   3,C   1,C   0,H  25)   -170.59 -0.000492   -0.05   -170.64   
   106. D(C   6,C   1,C   0,H  24)   -176.58  0.003645   -0.82   -177.40   
   107. D(O   2,C   1,C   0,H  24)     60.28 -0.002864    0.93     61.21   
   108. D(C   6,C   1,C   0,H  23)    -56.50  0.002825   -0.57    -57.06   
   109. D(C   6,C   1,C   0,H  25)     65.69  0.005178   -1.29     64.40   
   110. D(C   3,C   1,C   0,H  24)    -52.86 -0.002025    0.42    -52.43   
   111. D(O   2,C   1,C   0,H  25)    -57.45 -0.001331    0.46    -56.99   
   112. D(C   3,C   1,C   0,H  23)     67.22 -0.002844    0.67     67.90   
   113. D(O   2,C   1,C   0,H  23)   -179.64 -0.003683    1.18   -178.46   
   114. D(H  26,O   2,C   1,C   3)     45.72  0.003679   -1.10     44.62   
   115. D(H  26,O   2,C   1,C   6)    166.46 -0.002924    0.15    166.62   
   116. D(H  26,O   2,C   1,C   0)    -68.53  0.003580   -1.47    -69.99   
   117. D(O   4,C   3,C   1,O   2)    -17.30  0.003512   -0.81    -18.11   
   118. D(O   4,C   3,C   1,C   0)     97.60 -0.003066    0.44     98.03   
   119. D(O   4,C   3,C   1,C   6)   -137.39  0.000264   -0.06   -137.45   
   120. D(O   5,C   3,C   1,C   6)     44.84 -0.001133    0.78     45.62   
   121. D(O   5,C   3,C   1,O   2)    164.93  0.002115    0.03    164.95   
   122. D(O   5,C   3,C   1,C   0)    -80.17 -0.004464    1.27    -78.90   
   123. D(H  27,O   5,C   3,O   4)      0.62 -0.000903    0.43      1.04   
   124. D(H  27,O   5,C   3,C   1)    178.50  0.000894   -0.42    178.08   
   125. D(C  11,C   6,C   1,C   3)     58.39 -0.000957   -0.37     58.01   
   126. D(C  11,C   6,C   1,O   2)    -58.63 -0.000819   -0.56    -59.18   
   127. D(C   8,C   6,C   1,C   3)   -178.03  0.002710   -1.46   -179.49   
   128. D(C   8,C   6,C   1,O   2)     64.96  0.002848   -1.65     63.31   
   129. D(C   8,C   6,C   1,C   0)    -56.78  0.003493   -1.25    -58.03   
   130. D(C  11,C   6,C   1,C   0)    179.63 -0.000174   -0.16    179.47   
   131. D(O   7,C   6,C   1,O   2)   -179.45  0.003056   -1.74   -181.19   
   132. D(O   7,C   6,C   1,C   3)    -62.43  0.002917   -1.56    -63.99   
   133. D(O   7,C   6,C   1,C   0)     58.81  0.003700   -1.34     57.47   
   134. D(H  28,O   7,C   6,C   8)    164.24 -0.003927    1.24    165.47   
   135. D(H  28,O   7,C   6,C   1)     47.21 -0.000589    0.66     47.87   
   136. D(H  28,O   7,C   6,C  11)    -76.22  0.001601   -0.26    -76.48   
   137. D(O  10,C   8,C   6,C  11)     50.90  0.002994   -1.57     49.33   
   138. D(O  10,C   8,C   6,O   7)    168.27  0.004595   -2.13    166.14   
   139. D(O  10,C   8,C   6,C   1)    -73.37  0.001533   -1.19    -74.56   
   140. D(O   9,C   8,C   6,C  11)   -131.34 -0.000817    0.42   -130.92   
   141. D(O   9,C   8,C   6,O   7)    -13.97  0.000783   -0.14    -14.11   
   142. D(O   9,C   8,C   6,C   1)    104.39 -0.002278    0.80    105.19   
   143. D(H  29,O  10,C   8,O   9)      3.45 -0.001612    0.53      3.98   
   144. D(H  29,O  10,C   8,C   6)   -178.60 -0.004565    2.29   -176.31   
   145. D(H  30,C  11,C   6,C   8)    175.58  0.004854   -1.66    173.92   
   146. D(H  30,C  11,C   6,O   7)     59.49  0.000249   -0.40     59.09   
   147. D(H  30,C  11,C   6,C   1)    -62.57  0.004458   -1.90    -64.47   
   148. D(C  13,C  11,C   6,C   8)     56.72  0.005318   -1.94     54.78   
   149. D(C  13,C  11,C   6,O   7)    -59.36  0.000714   -0.69    -60.05   
   150. D(C  13,C  11,C   6,C   1)    178.57  0.004923   -2.18    176.39   
   151. D(O  12,C  11,C   6,C   8)    -67.16 -0.001273    0.44    -66.71   
   152. D(O  12,C  11,C   6,C   1)     54.69 -0.001669    0.20     54.90   
   153. D(O  12,C  11,C   6,O   7)    176.76 -0.005878    1.69    178.45   
   154. D(H  31,O  12,C  11,H  30)     99.47 -0.000324    0.15     99.62   
   155. D(H  31,O  12,C  11,C  13)   -145.40 -0.007068    1.57   -143.83   
   156. D(H  31,O  12,C  11,C   6)    -18.10  0.007718   -1.90    -20.01   
   157. D(H  32,C  13,C  11,H  30)    -79.42 -0.000214    0.07    -79.35   
   158. D(H  32,C  13,C  11,O  12)    166.49  0.003500   -1.38    165.11   
   159. D(H  32,C  13,C  11,C   6)     38.83  0.000173    0.32     39.15   
   160. D(C  15,C  13,C  11,H  30)     40.81 -0.001743    0.70     41.50   
   161. D(C  15,C  13,C  11,O  12)    -73.28  0.001971   -0.75    -74.03   
   162. D(C  15,C  13,C  11,C   6)    159.06 -0.001356    0.95    160.00   
   163. D(O  14,C  13,C  11,H  30)    162.40 -0.001994    0.33    162.72   
   164. D(O  14,C  13,C  11,O  12)     48.31  0.001720   -1.12     47.19   
   165. D(O  14,C  13,C  11,C   6)    -79.35 -0.001607    0.58    -78.77   
   166. D(H  33,O  14,C  13,C  15)     81.11  0.002709   -0.99     80.12   
   167. D(H  33,O  14,C  13,C  11)    -41.12  0.000397   -0.09    -41.21   
   168. D(H  33,O  14,C  13,H  32)   -160.57 -0.001910    0.42   -160.15   
   169. D(H  34,C  15,C  13,H  32)    179.45  0.000651    0.31    179.76   
   170. D(H  34,C  15,C  13,O  14)    -62.41 -0.004202    1.60    -60.81   
   171. D(H  34,C  15,C  13,C  11)     58.23  0.001720    0.05     58.28   
   172. D(C  17,C  15,C  13,H  32)    -59.97 -0.000667    0.77    -59.20   
   173. D(C  17,C  15,C  13,O  14)     58.16 -0.005521    2.07     60.23   
   174. D(C  17,C  15,C  13,C  11)    178.80  0.000402    0.52    179.32   
   175. D(O  16,C  15,C  13,H  32)     61.36 -0.000739    0.69     62.05   
   176. D(O  16,C  15,C  13,O  14)    179.49 -0.005592    1.99    181.48   
   177. D(O  16,C  15,C  13,C  11)    -59.87  0.000331    0.43    -59.43   
   178. D(H  35,O  16,C  15,H  34)     57.12 -0.002247    0.67     57.79   
   179. D(H  35,O  16,C  15,C  17)    -60.96 -0.001828    0.23    -60.73   
   180. D(H  35,O  16,C  15,C  13)    175.62  0.003275   -0.47    175.15   
   181. D(H  37,C  17,C  15,H  34)    172.86 -0.000072    0.48    173.34   
   182. D(H  37,C  17,C  15,O  16)    -69.28 -0.003550    1.25    -68.03   
   183. D(H  37,C  17,C  15,C  13)     52.11  0.000159    0.44     52.55   
   184. D(H  36,C  17,C  15,H  34)    -70.16  0.000023    0.49    -69.67   
   185. D(H  36,C  17,C  15,O  16)     47.70 -0.003456    1.25     48.95   
   186. D(H  36,C  17,C  15,C  13)    169.09  0.000253    0.44    169.53   
   187. D(O  18,C  17,C  15,H  34)     48.41  0.000029    0.26     48.67   
   188. D(O  18,C  17,C  15,O  16)    166.27 -0.003449    1.02    167.29   
   189. D(O  18,C  17,C  15,C  13)    -72.34  0.000259    0.21    -72.13   
   190. D(P  19,O  18,C  17,H  37)      3.27 -0.006234    3.92      7.19   
   191. D(P  19,O  18,C  17,H  36)   -113.09 -0.005537    3.76   -109.33   
   192. D(P  19,O  18,C  17,C  15)    126.96 -0.010829    4.82    131.78   
   193. D(O  22,P  19,O  18,C  17)    -62.04 -0.008000    2.17    -59.87   
   194. D(O  21,P  19,O  18,C  17)   -169.07  0.004975    0.52   -168.55   
   195. D(O  20,P  19,O  18,C  17)     66.23 -0.005179    2.19     68.42   
   196. D(H  38,O  21,P  19,O  22)     97.44  0.003407    0.50     97.94   
   197. D(H  38,O  21,P  19,O  20)    -27.13  0.001992    0.22    -26.91   
   198. D(H  38,O  21,P  19,O  18)   -153.42 -0.010442    2.18   -151.25   
   199. D(H  39,O  22,P  19,O  21)     68.32  0.007427   -0.36     67.97   
   200. D(H  39,O  22,P  19,O  20)   -168.76 -0.002965    0.81   -167.95   
   201. D(H  39,O  22,P  19,O  18)    -40.45 -0.007240    1.18    -39.28   
    ----------------------------------------------------------------------------

         *************************************************************
         *                GEOMETRY OPTIMIZATION CYCLE   2            *
         *************************************************************
---------------------------------
CARTESIAN COORDINATES (ANGSTROEM)
---------------------------------
  C    -3.380162    2.280715    0.839603
  C    -2.764801    1.204593   -0.055024
  O    -2.703681    1.689613   -1.398421
  C    -3.752892    0.031290   -0.088190
  O    -4.543248   -0.142908   -0.982360
  O    -3.740405   -0.780079    0.982182
  C    -1.336491    0.792046    0.405393
  O    -1.342989    0.328017    1.746125
  C    -0.445048    2.032219    0.412737
  O    -0.076559    2.630043    1.390793
  O    -0.079448    2.441847   -0.810932
  C    -0.718079   -0.303865   -0.489289
  O    -0.677151    0.010142   -1.875702
  C     0.718198   -0.618961   -0.061019
  O     1.546247    0.408322   -0.582400
  C     1.161852   -1.995191   -0.581764
  O     0.274085   -2.972233   -0.051402
  C     2.607695   -2.364311   -0.198489
  O     3.547704   -1.605234   -0.928037
  P     4.736007   -0.907156   -0.111073
  O     5.724316   -1.834631    0.475923
  O     5.361458    0.069671   -1.206754
  O     4.053149    0.079599    0.934482
  H    -3.420863    1.961910    1.880236
  H    -4.397039    2.510315    0.513363
  H    -2.810338    3.206820    0.776822
  H    -3.614677    1.735212   -1.729794
  H    -4.437428   -1.447673    0.823200
  H    -2.062571   -0.310682    1.853090
  H     0.525568    3.189494   -0.659311
  H    -1.329090   -1.211312   -0.378872
  H    -1.326913    0.715051   -2.048559
  H     0.795809   -0.608720    1.029657
  H     1.199334    0.563518   -1.482413
  H     1.075865   -1.994713   -1.677502
  H     0.512860   -3.822072   -0.443397
  H     2.774204   -3.421027   -0.442641
  H     2.766410   -2.260960    0.881119
  H     6.294144    0.193267   -1.013104
  H     3.284571    0.528222    0.529324

----------------------------
CARTESIAN COORDINATES (A.U.)
----------------------------
  NO LB    ZA    FRAG    MASS        X           Y           Z
   0 C   6.0000    0    12.011   -6.387580    4.309927    1.586620
   1 C   6.0000    0    12.011   -5.224716    2.276351   -0.103980
   2 O   8.0000    0    15.999   -5.109216    3.192906   -2.642633
   3 C   6.0000    0    12.011   -7.091938    0.059130   -0.166655
   4 O   8.0000    0    15.999   -8.585495   -0.270056   -1.856391
   5 O   8.0000    0    15.999   -7.068340   -1.474136    1.856055
   6 C   6.0000    0    12.011   -2.525602    1.496751    0.766081
   7 O   8.0000    0    15.999   -2.537882    0.619862    3.299698
   8 C   6.0000    0    12.011   -0.841018    3.840337    0.779960
   9 O   8.0000    0    15.999   -0.144676    4.970061    2.628218
  10 O   8.0000    0    15.999   -0.150136    4.614423   -1.532439
  11 C   6.0000    0    12.011   -1.356973   -0.574222   -0.924623
  12 O   8.0000    0    15.999   -1.279630    0.019166   -3.544563
  13 C   6.0000    0    12.011    1.357197   -1.169667   -0.115309
  14 O   8.0000    0    15.999    2.921984    0.771617   -1.100577
  15 C   6.0000    0    12.011    2.195582   -3.770365   -1.099376
  16 O   8.0000    0    15.999    0.517946   -5.616707   -0.097136
  17 C   6.0000    0    12.011    4.927830   -4.467900   -0.375089
  18 O   8.0000    0    15.999    6.704188   -3.033452   -1.753735
  19 P  15.0000    0    30.974    8.949756   -1.714277   -0.209897
  20 O   8.0000    0    15.999   10.817389   -3.466951    0.899363
  21 O   8.0000    0    15.999   10.131687    0.131659   -2.280435
  22 O   8.0000    0    15.999    7.659341    0.150420    1.765914
  23 H   1.0000    0     1.008   -6.464494    3.707473    3.553132
  24 H   1.0000    0     1.008   -8.309200    4.743808    0.970115
  25 H   1.0000    0     1.008   -5.310770    6.060012    1.467981
  26 H   1.0000    0     1.008   -6.830750    3.279075   -3.268837
  27 H   1.0000    0     1.008   -8.385524   -2.735706    1.555622
  28 H   1.0000    0     1.008   -3.897694   -0.587105    3.501833
  29 H   1.0000    0     1.008    0.993179    6.027271   -1.245917
  30 H   1.0000    0     1.008   -2.511616   -2.289049   -0.715964
  31 H   1.0000    0     1.008   -2.507503    1.351251   -3.871215
  32 H   1.0000    0     1.008    1.503861   -1.150314    1.945770
  33 H   1.0000    0     1.008    2.266413    1.064894   -2.801354
  34 H   1.0000    0     1.008    2.033090   -3.769461   -3.170020
  35 H   1.0000    0     1.008    0.969164   -7.222669   -0.837898
  36 H   1.0000    0     1.008    5.242487   -6.464804   -0.836470
  37 H   1.0000    0     1.008    5.227757   -4.272594    1.665073
  38 H   1.0000    0     1.008   11.894208    0.365222   -1.914490
  39 H   1.0000    0     1.008    6.206939    0.998195    1.000277

      -----------------------------------------------------------      
     |                   =====================                   |     
     |                           x T B                           |     
     |                   =====================                   |     
     |                         S. Grimme                         |     
     |          Mulliken Center for Theoretical Chemistry        |     
     |                    University of Bonn                     |     
      -----------------------------------------------------------      

   * xtb version 6.5.1 (579679a) compiled by 'ehlert@majestix' on 2022-07-11

   xtb is free software: you can redistribute it and/or modify it under
   the terms of the GNU Lesser General Public License as published by
   the Free Software Foundation, either version 3 of the License, or
   (at your option) any later version.
   
   xtb is distributed in the hope that it will be useful,
   but WITHOUT ANY WARRANTY; without even the implied warranty of
   MERCHANTABILITY or FITNESS FOR A PARTICULAR PURPOSE.  See the
   GNU Lesser General Public License for more details.
   
   Cite this work as:
   * C. Bannwarth, E. Caldeweyher, S. Ehlert, A. Hansen, P. Pracht,
     J. Seibert, S. Spicher, S. Grimme, WIREs Comput. Mol. Sci., 2020, 11,
     e01493. DOI: 10.1002/wcms.1493
   
   for GFN2-xTB:
   * C. Bannwarth, S. Ehlert and S. Grimme., J. Chem. Theory Comput., 2019,
     15, 1652-1671. DOI: 10.1021/acs.jctc.8b01176
   for GFN1-xTB:
   * S. Grimme, C. Bannwarth, P. Shushkov, J. Chem. Theory Comput., 2017,
     13, 1989-2009. DOI: 10.1021/acs.jctc.7b00118
   for GFN0-xTB:
   * P. Pracht, E. Caldeweyher, S. Ehlert, S. Grimme, ChemRxiv, 2019, preprint.
     DOI: 10.26434/chemrxiv.8326202.v1
   for GFN-FF:
   * S. Spicher and S. Grimme, Angew. Chem. Int. Ed., 2020, 59, 15665-15673.
     DOI: 10.1002/anie.202004239
   
   for ALPB and GBSA implicit solvation:
   * S. Ehlert, M. Stahn, S. Spicher, S. Grimme, J. Chem. Theory Comput.,
     2021, 17, 4250-4261. DOI: 10.1021/acs.jctc.1c00471
   
   for DFT-D4:
   * E. Caldeweyher, C. Bannwarth and S. Grimme, J. Chem. Phys., 2017,
     147, 034112. DOI: 10.1063/1.4993215
   * E. Caldeweyher, S. Ehlert, A. Hansen, H. Neugebauer, S. Spicher,
     C. Bannwarth and S. Grimme, J. Chem. Phys., 2019, 150, 154122.
     DOI: 10.1063/1.5090222
   * E. Caldeweyher, J.-M. Mewes, S. Ehlert and S. Grimme, Phys. Chem. Chem. Phys.
     2020, 22, 8499-8512. DOI: 10.1039/D0CP00502A
   
   for sTDA-xTB:
   * S. Grimme and C. Bannwarth, J. Chem. Phys., 2016, 145, 054103.
     DOI: 10.1063/1.4959605
   
   in the mass-spec context:
   * V. Asgeirsson, C. Bauer and S. Grimme, Chem. Sci., 2017, 8, 4879.
     DOI: 10.1039/c7sc00601b
   * J. Koopman and S. Grimme, ACS Omega 2019, 4, 12, 15120-15133.
     DOI: 10.1021/acsomega.9b02011
   
   for metadynamics refer to:
   * S. Grimme, J. Chem. Theory Comput., 2019, 155, 2847-2862
     DOI: 10.1021/acs.jctc.9b00143
   
   for SPH calculations refer to:
   * S. Spicher and S. Grimme, J. Chem. Theory Comput., 2021, 17, 1701-1714
     DOI: 10.1021/acs.jctc.0c01306
   
   with help from (in alphabetical order)
   P. Atkinson, C. Bannwarth, F. Bohle, G. Brandenburg, E. Caldeweyher
   M. Checinski, S. Dohm, S. Ehlert, S. Ehrlich, I. Gerasimov, C. Hölzer
   A. Katbashev, J. Koopman, C. Lavigne, S. Lehtola, F. März, M. Müller,
   F. Musil, H. Neugebauer, J. Pisarek, C. Plett, P. Pracht, F. Pultar,
   J. Seibert, P. Shushkov, S. Spicher, M. Stahn, M. Steiner, T. Strunk,
   J. Stückrath, T. Rose, and J. Unsleber
   
 * started run on 2023/12/06 at 23:46:16.842     

           -------------------------------------------------
          |                Calculation Setup                |
           -------------------------------------------------

          program call               : otool_xtb /tmp/30_XTB.xyz --grad -c 0 -u 0 -P 1 --namespace /tmp/30 --input /tmp/30_XTB.input.tmp --acc 1.000000
          calculation namespace      : /tmp/30
          coordinate file            : /tmp/30_XTB.xyz
          omp threads                :                     1

   ID    Z sym.   atoms
    1    6 C      1, 2, 4, 7, 9, 12, 14, 16, 18
    2    8 O      3, 5, 6, 8, 10, 11, 13, 15, 17, 19, 21-23
    3   15 P      20
    4    1 H      24-40

           -------------------------------------------------
          |                 G F N 2 - x T B                 |
           -------------------------------------------------

        Reference                      10.1021/acs.jctc.8b01176
      * Hamiltonian:
        H0-scaling (s, p, d)           1.850000    2.230000    2.230000
        zeta-weighting                 0.500000
      * Dispersion:
        s8                             2.700000
        a1                             0.520000
        a2                             5.000000
        s9                             5.000000
      * Repulsion:
        kExp                           1.500000    1.000000
        rExp                           1.000000
      * Coulomb:
        alpha                          2.000000
        third order                    shell-resolved
        anisotropic                    true
        a3                             3.000000
        a5                             4.000000
        cn-shift                       1.200000
        cn-exp                         4.000000
        max-rad                        5.000000

q/qsh data taken from xtbrestart
CAMM data taken from xtbrestart

          ...................................................
          :                      SETUP                      :
          :.................................................:
          :  # basis functions                 115          :
          :  # atomic orbitals                 114          :
          :  # shells                           64          :
          :  # electrons                       136          :
          :  max. iterations                   250          :
          :  Hamiltonian                  GFN2-xTB          :
          :  restarted?                       true          :
          :  GBSA solvation                  false          :
          :  PC potential                    false          :
          :  electronic temp.          300.0000000     K    :
          :  accuracy                    1.0000000          :
          :  -> integral cutoff          0.2500000E+02      :
          :  -> integral neglect         0.1000000E-07      :
          :  -> SCF convergence          0.1000000E-05 Eh   :
          :  -> wf. convergence          0.1000000E-03 e    :
          :  Broyden damping             0.4000000          :
          ...................................................

 iter      E             dE          RMSdq      gap      omega  full diag
   1    -84.0505492 -0.840505E+02  0.342E-01    3.39       0.0  T
   2    -84.0507932 -0.244043E-03  0.191E-01    3.40       1.0  T
   3    -84.0507919  0.135556E-05  0.578E-02    3.44       1.0  T
   4    -84.0508375 -0.456772E-04  0.195E-02    3.44       1.0  T
   5    -84.0508390 -0.149416E-05  0.619E-03    3.44       2.6  T
   6    -84.0508392 -0.184675E-06  0.224E-03    3.44       7.1  T
   7    -84.0508392 -0.160940E-07  0.108E-03    3.44      14.6  T
   8    -84.0508392 -0.460415E-08  0.348E-04    3.44      45.4  T
   9    -84.0508392 -0.944922E-09  0.131E-04    3.44     120.7  T

   *** convergence criteria satisfied after 9 iterations ***

         #    Occupation            Energy/Eh            Energy/eV
      -------------------------------------------------------------
         1        2.0000           -0.7941459             -21.6098
       ...           ...                  ...                  ...
        62        2.0000           -0.4465561             -12.1514
        63        2.0000           -0.4434691             -12.0674
        64        2.0000           -0.4357808             -11.8582
        65        2.0000           -0.4257166             -11.5843
        66        2.0000           -0.4228625             -11.5067
        67        2.0000           -0.4223955             -11.4940
        68        2.0000           -0.4152480             -11.2995 (HOMO)
        69                         -0.2889427              -7.8625 (LUMO)
        70                         -0.2569577              -6.9922
        71                         -0.0687239              -1.8701
        72                         -0.0640360              -1.7425
        73                         -0.0345941              -0.9414
       ...                                ...                  ...
       114                          1.2934059              35.1954
      -------------------------------------------------------------
                  HL-Gap            0.1263052 Eh            3.4369 eV
             Fermi-level           -0.3520953 Eh           -9.5810 eV

 SCC (total)                   0 d,  0 h,  0 min,  0.059 sec
 SCC setup                      ...        0 min,  0.000 sec (  0.504%)
 Dispersion                     ...        0 min,  0.000 sec (  0.684%)
 classical contributions        ...        0 min,  0.000 sec (  0.151%)
 integral evaluation            ...        0 min,  0.009 sec ( 15.658%)
 iterations                     ...        0 min,  0.021 sec ( 34.820%)
 molecular gradient             ...        0 min,  0.028 sec ( 47.687%)
 printout                       ...        0 min,  0.000 sec (  0.463%)

         :::::::::::::::::::::::::::::::::::::::::::::::::::::
         ::                     SUMMARY                     ::
         :::::::::::::::::::::::::::::::::::::::::::::::::::::
         :: total energy             -83.485656283683 Eh    ::
         :: gradient norm              0.065825983951 Eh/a0 ::
         :: HOMO-LUMO gap              3.436940742499 eV    ::
         ::.................................................::
         :: SCC energy               -84.050839233349 Eh    ::
         :: -> isotropic ES            0.316014646921 Eh    ::
         :: -> anisotropic ES         -0.009771856786 Eh    ::
         :: -> anisotropic XC         -0.011920090359 Eh    ::
         :: -> dispersion             -0.042666511076 Eh    ::
         :: repulsion energy           0.564558796518 Eh    ::
         :: add. restraining           0.000000000000 Eh    ::
         :: total charge               0.000000000000 e     ::
         :::::::::::::::::::::::::::::::::::::::::::::::::::::


Property printout bound to 'properties.out'

           -------------------------------------------------
          | TOTAL ENERGY              -83.485656283683 Eh   |
          | GRADIENT NORM               0.065825983951 Eh/α |
          | HOMO-LUMO GAP               3.436940742499 eV   |
           -------------------------------------------------

------------------------------------------------------------------------
 * finished run on 2023/12/06 at 23:46:16.918     
------------------------------------------------------------------------
 total:
 * wall-time:     0 d,  0 h,  0 min,  0.075 sec
 *  cpu-time:     0 d,  0 h,  0 min,  0.072 sec
 * ratio c/w:     0.957 speedup
 SCF:
 * wall-time:     0 d,  0 h,  0 min,  0.059 sec
 *  cpu-time:     0 d,  0 h,  0 min,  0.060 sec
 * ratio c/w:     1.014 speedup


-------------------------   --------------------
FINAL SINGLE POINT ENERGY       -83.485656283680
-------------------------   --------------------

------------------------------------------------------------------------------
                         ORCA GEOMETRY RELAXATION STEP
------------------------------------------------------------------------------

Reading the OPT-File                    .... done
Getting information on internals        .... done
Copying old internal coords+grads       .... done
Making the new internal coordinates     .... (new redundants).... done
Validating the new internal coordinates .... (new redundants).... done
Calculating the B-matrix                .... done
Calculating the G,G- and P matrices     .... done
Transforming gradient to internals      .... done
Projecting the internal gradient        .... done
Number of atoms                         ....  40
Number of internal coordinates          .... 201
Current Energy                          ....   -83.485656284 Eh
Current gradient norm                   ....     0.065825984 Eh/bohr
Maximum allowed component of the step   ....  0.300
Current trust radius                    ....  0.300
Updating the Hessian (BFGS)             .... done
Forming the augmented Hessian           .... done
Diagonalizing the augmented Hessian     .... done
[...]


-----------
IR SPECTRUM
-----------

 Mode   freq       eps      Int      T**2         TX        TY        TZ
       cm**-1   L/(mol*cm) km/mol    a.u.
----------------------------------------------------------------------------
  6:     16.88   0.000092    0.46  0.001692  ( 0.024320 -0.007657 -0.032278)
  7:     22.40   0.000645    3.26  0.008984  (-0.028473  0.086078  0.027647)
  8:     33.19   0.000044    0.22  0.000415  (-0.004937 -0.012375 -0.015415)
  9:     49.63   0.000144    0.73  0.000907  ( 0.026992  0.010882 -0.007733)
 10:     53.86   0.000520    2.63  0.003011  ( 0.048861 -0.022265  0.011298)
 11:     61.99   0.000261    1.32  0.001312  ( 0.029768 -0.014839 -0.014338)
 12:     68.00   0.000764    3.86  0.003505  (-0.048149 -0.014871  0.031077)
 13:     80.80   0.000646    3.26  0.002495  (-0.028573 -0.030224 -0.027652)
 14:    100.15   0.000295    1.49  0.000918  ( 0.027345  0.013035 -0.000833)
 15:    113.27   0.001021    5.16  0.002813  ( 0.005234 -0.021234  0.048317)
 16:    139.33   0.001629    8.23  0.003648  ( 0.055040  0.023786 -0.007279)
 17:    146.10   0.001093    5.52  0.002335  (-0.027638  0.003630 -0.039471)
 18:    160.57   0.000676    3.42  0.001313  (-0.010527 -0.001889  0.034628)
 19:    168.20   0.001712    8.65  0.003177  ( 0.047976  0.012320  0.026894)
 20:    182.18   0.000957    4.84  0.001639  ( 0.038433  0.010915 -0.006540)
 21:    204.46   0.001304    6.59  0.001990  ( 0.008695  0.038289  0.021166)
 22:    211.76   0.008205   41.46  0.012091  ( 0.081659  0.060242  0.042356)
 23:    215.08   0.008299   41.94  0.012042  ( 0.074853  0.035206  0.072108)
 24:    242.30   0.001403    7.09  0.001807  ( 0.001633 -0.036083  0.022416)
 25:    245.38   0.006891   34.82  0.008763  ( 0.092143  0.015707 -0.005126)
 26:    272.22   0.006709   33.91  0.007691  ( 0.079911  0.017314  0.031708)
 27:    280.99   0.007206   36.41  0.008003  ( 0.027176 -0.021107 -0.082574)
 28:    298.54   0.009393   47.47  0.009818  ( 0.042113 -0.007769  0.089355)
 29:    304.41   0.001231    6.22  0.001262  (-0.004369  0.034288  0.008188)
 30:    305.30   0.021869  110.52  0.022353  ( 0.126176 -0.021103  0.077379)
 31:    319.39   0.001743    8.81  0.001703  ( 0.006423  0.024760  0.032381)
 32:    324.50   0.014210   71.81  0.013666  ( 0.099855 -0.039193  0.046458)
 33:    328.51   0.020866  105.45  0.019822  ( 0.108133 -0.089109  0.013728)
 34:    347.96   0.018326   92.61  0.016436  (-0.118936 -0.027727  0.038999)
 35:    350.59   0.005779   29.21  0.005144  (-0.064946 -0.030411 -0.001227)
 36:    363.90   0.007397   37.38  0.006343  ( 0.076020 -0.022221 -0.008408)
 37:    380.43   0.000320    1.62  0.000263  (-0.005382  0.004439 -0.014628)
 38:    390.98   0.003351   16.93  0.002674  ( 0.046270 -0.021502 -0.008436)
 39:    402.36   0.010503   53.08  0.008146  ( 0.069198 -0.047103 -0.033748)
 40:    413.56   0.014349   72.51  0.010828  ( 0.092926 -0.023364 -0.040574)
 41:    427.85   0.000427    2.16  0.000312  ( 0.010069  0.007119 -0.012634)
 42:    443.45   0.005942   30.03  0.004181  ( 0.047695  0.038077  0.021364)
 43:    480.68   0.021918  110.76  0.014230  (-0.059193  0.102550  0.014463)
 44:    484.24   0.021970  111.02  0.014158  (-0.102489  0.003604  0.060340)
 45:    505.95   0.036127  182.57  0.022283  (-0.019895  0.134410  0.061814)
 46:    511.84   0.007632   38.57  0.004653  (-0.052419 -0.012183  0.041918)
 47:    527.35   0.010934   55.26  0.006470  ( 0.060159  0.006715  0.052972)
 48:    541.85   0.004464   22.56  0.002571  (-0.003879 -0.049474  0.010393)
 49:    589.92   0.004257   21.51  0.002252  ( 0.005378 -0.035150  0.031425)
 50:    596.69   0.026741  135.14  0.013985  ( 0.104357  0.055563  0.002781)
 51:    609.92   0.028391  143.48  0.014526  ( 0.057678 -0.098816 -0.037879)
 52:    639.51   0.035605  179.93  0.017374  (-0.119442  0.007026  0.055304)
 53:    643.60   0.019310   97.58  0.009363  (-0.081300  0.045586 -0.025980)
 54:    698.43   0.000639    3.23  0.000286  ( 0.007256 -0.007535  0.013273)
 55:    718.01   0.013630   68.88  0.005924  ( 0.063643 -0.010920 -0.041883)
 56:    731.78   0.030542  154.35  0.013024  ( 0.069722 -0.089818 -0.009796)
 57:    756.55   0.017314   87.50  0.007142  (-0.062100 -0.053286 -0.021118)
 58:    761.62   0.013880   70.14  0.005687  ( 0.052425  0.027093  0.046952)
 59:    812.48   0.034625  174.98  0.013299  ( 0.077551  0.083837 -0.016000)
 60:    824.33   0.000828    4.18  0.000313  ( 0.016828  0.005409 -0.000978)
 61:    871.74   0.054292  274.37  0.019435  ( 0.083233  0.026604 -0.108628)
 62:    881.29   0.004842   24.47  0.001714  ( 0.021587  0.018905  0.029851)
 63:    913.22   0.035552  179.67  0.012149  (-0.004667 -0.100319  0.045422)
 64:    946.63   0.001316    6.65  0.000434  (-0.011792 -0.017022  0.002230)
 65:    972.14   0.001937    9.79  0.000622  (-0.012307 -0.017591  0.012679)
 66:    973.66   0.002806   14.18  0.000899  (-0.001860 -0.012088 -0.027382)
 67:    988.73   0.063116  318.96  0.019921  ( 0.026024  0.084754  0.109820)
 68:   1038.64   0.000721    3.64  0.000217  (-0.010942  0.003332  0.009259)
 69:   1048.28   0.005891   29.77  0.001754  ( 0.040395  0.011024  0.000688)
 70:   1058.33   0.006709   33.90  0.001978  ( 0.043090  0.003460 -0.010456)
 71:   1091.22   0.003857   19.49  0.001103  ( 0.024444  0.015897  0.015896)
 72:   1099.06   0.034714  175.43  0.009857  (-0.090493 -0.036538  0.018241)
 73:   1100.86   0.014380   72.67  0.004076  ( 0.003930  0.032216 -0.054981)
 74:   1111.36   0.002556   12.92  0.000718  ( 0.015795  0.018715 -0.010867)
 75:   1118.49   0.004519   22.84  0.001261  ( 0.013520 -0.000199 -0.032834)
 76:   1124.14   0.007549   38.15  0.002096  ( 0.026630  0.001628 -0.037201)
 77:   1133.35   0.043420  219.43  0.011956  ( 0.014958  0.059301 -0.090638)
 78:   1140.93   0.068141  344.35  0.018638  ( 0.033175  0.060379 -0.117861)
 79:   1156.29   0.001226    6.19  0.000331  ( 0.006532 -0.015830 -0.006127)
 80:   1163.57   0.004100   20.72  0.001100  ( 0.015936  0.024050  0.016349)
 81:   1192.09   0.007504   37.92  0.001964  ( 0.007454 -0.001506 -0.043663)
 82:   1201.82   0.007973   40.29  0.002070  ( 0.022309  0.002266  0.039591)
 83:   1218.24   0.003848   19.45  0.000986  (-0.017304 -0.014334 -0.021929)
 84:   1230.95   0.025312  127.92  0.006417  (-0.059049 -0.043103  0.032746)
 85:   1236.72   0.042507  214.81  0.010726  ( 0.048271  0.072589 -0.055915)
 86:   1238.17   0.019753   99.83  0.004979  (-0.037009 -0.058593 -0.013257)
 87:   1271.84   0.016138   81.55  0.003960  (-0.048352 -0.000177  0.040271)
 88:   1280.45   0.008662   43.77  0.002111  (-0.028368  0.012373 -0.033958)
 89:   1286.48   0.056562  285.84  0.013720  ( 0.099876 -0.054759  0.027325)
 90:   1287.11   0.028280  142.92  0.006857  ( 0.025532 -0.053933  0.057410)
 91:   1304.61   0.002908   14.70  0.000696  ( 0.016071 -0.008980 -0.018888)
 92:   1310.26   0.003499   17.68  0.000833  (-0.024494  0.006488 -0.013834)
 93:   1327.60   0.012278   62.05  0.002886  (-0.036886 -0.034464 -0.018376)
 94:   1338.60   0.012484   63.09  0.002910  ( 0.018342  0.048558  0.014703)
 95:   1347.76   0.014446   73.00  0.003345  (-0.006492 -0.008702  0.056805)
 96:   1357.99   0.021414  108.22  0.004921  ( 0.039267  0.023623 -0.053113)
 97:   1388.31   0.000665    3.36  0.000149  (-0.010287  0.003873  0.005349)
 98:   1456.52   0.000794    4.01  0.000170  (-0.008502  0.000205 -0.009894)
 99:   1469.81   0.003008   15.20  0.000639  (-0.002265 -0.006977 -0.024182)
100:   1474.50   0.009153   46.26  0.001937  (-0.018034  0.001695 -0.040113)
101:   1776.36   0.085067  429.89  0.014944  (-0.057449 -0.008493 -0.107572)
102:   1811.51   0.091869  464.27  0.015826  ( 0.032888  0.042085  0.113900)
103:   2860.70   0.017255   87.20  0.001882  (-0.021179 -0.031202  0.021452)
104:   2867.87   0.002132   10.77  0.000232  ( 0.001727  0.002073  0.014990)
105:   2893.00   0.008335   42.12  0.000899  ( 0.000298  0.029795  0.003356)
106:   2933.42   0.005320   26.88  0.000566  (-0.001347 -0.006371  0.022881)
107:   2972.80   0.003536   17.87  0.000371  (-0.001361 -0.000070  0.019219)
108:   3032.64   0.002451   12.38  0.000252  ( 0.013384 -0.000014  0.008546)
109:   3055.79   0.000551    2.78  0.000056  (-0.005236  0.000777 -0.005311)
110:   3061.89   0.003424   17.31  0.000349  ( 0.000090 -0.000585 -0.018672)
111:   3311.59   0.114433  578.30  0.010783  (-0.097332  0.028406 -0.022429)
112:   3348.54   0.029258  147.86  0.002727  (-0.049950  0.014081 -0.005774)
113:   3367.91   0.028466  143.86  0.002638  ( 0.014768 -0.048019 -0.010663)
114:   3396.36   0.014031   70.91  0.001289  (-0.001985  0.000992 -0.035837)
115:   3408.63   0.013564   68.55  0.001242  ( 0.023481  0.025463  0.006486)
116:   3437.00   0.009086   45.92  0.000825  ( 0.022174  0.015321 -0.009927)
117:   3491.10   0.007904   39.94  0.000706  ( 0.016732  0.015150  0.014035)
118:   3534.04   0.009896   50.01  0.000874  (-0.012064  0.026715 -0.003823)
119:   3638.95   0.012264   61.98  0.001052  ( 0.024650 -0.020908 -0.002637)

* The epsilon (eps) is given for a Dirac delta lineshape.
** The dipole moment derivative (T) already includes vibrational overlap.

The first frequency considered to be a vibration is 6
The total number of vibrations considered is 114


--------------------------
THERMOCHEMISTRY AT 298.15K
--------------------------

Temperature         ... 298.15 K
Pressure            ... 1.00 atm
Total Mass          ... 364.20 AMU

Throughout the following assumptions are being made:
  (1) The electronic state is orbitally nondegenerate
  (2) There are no thermally accessible electronically excited states
  (3) Hindered rotations indicated by low frequency modes are not
      treated as such but are treated as vibrations and this may
      cause some error
  (4) All equations used are the standard statistical mechanics
      equations for an ideal gas
  (5) All vibrations are strictly harmonic

freq.      16.88  E(vib)   ...       0.57 
freq.      22.40  E(vib)   ...       0.56 
freq.      33.19  E(vib)   ...       0.55 
freq.      49.63  E(vib)   ...       0.52 
freq.      53.86  E(vib)   ...       0.52 
freq.      61.99  E(vib)   ...       0.51 
freq.      68.00  E(vib)   ...       0.50 
freq.      80.80  E(vib)   ...       0.48 
freq.     100.15  E(vib)   ...       0.46 
freq.     113.27  E(vib)   ...       0.45 
freq.     139.33  E(vib)   ...       0.42 
freq.     146.10  E(vib)   ...       0.41 
freq.     160.57  E(vib)   ...       0.39 
freq.     168.20  E(vib)   ...       0.38 
freq.     182.18  E(vib)   ...       0.37 
freq.     204.46  E(vib)   ...       0.35 
freq.     211.76  E(vib)   ...       0.34 
freq.     215.08  E(vib)   ...       0.34 
freq.     242.30  E(vib)   ...       0.31 
freq.     245.38  E(vib)   ...       0.31 
freq.     272.22  E(vib)   ...       0.29 
freq.     280.99  E(vib)   ...       0.28 
freq.     298.54  E(vib)   ...       0.26 
freq.     304.41  E(vib)   ...       0.26 
freq.     305.30  E(vib)   ...       0.26 
freq.     319.39  E(vib)   ...       0.25 
freq.     324.50  E(vib)   ...       0.24 
freq.     328.51  E(vib)   ...       0.24 
freq.     347.96  E(vib)   ...       0.23 
freq.     350.59  E(vib)   ...       0.23 
freq.     363.90  E(vib)   ...       0.22 
freq.     380.43  E(vib)   ...       0.21 
freq.     390.98  E(vib)   ...       0.20 
freq.     402.36  E(vib)   ...       0.19 
freq.     413.56  E(vib)   ...       0.19 
freq.     427.85  E(vib)   ...       0.18 
freq.     443.45  E(vib)   ...       0.17 
freq.     480.68  E(vib)   ...       0.15 
freq.     484.24  E(vib)   ...       0.15 
freq.     505.95  E(vib)   ...       0.14 
freq.     511.84  E(vib)   ...       0.14 
freq.     527.35  E(vib)   ...       0.13 
freq.     541.85  E(vib)   ...       0.12 
freq.     589.92  E(vib)   ...       0.10 
freq.     596.69  E(vib)   ...       0.10 
freq.     609.92  E(vib)   ...       0.10 
freq.     639.51  E(vib)   ...       0.09 
freq.     643.60  E(vib)   ...       0.09 
freq.     698.43  E(vib)   ...       0.07 
freq.     718.01  E(vib)   ...       0.07 
freq.     731.78  E(vib)   ...       0.06 
freq.     756.55  E(vib)   ...       0.06 
freq.     761.62  E(vib)   ...       0.06 
freq.     812.48  E(vib)   ...       0.05 
freq.     824.33  E(vib)   ...       0.04 
freq.     871.74  E(vib)   ...       0.04 
freq.     881.29  E(vib)   ...       0.04 
freq.     913.22  E(vib)   ...       0.03 
freq.     946.63  E(vib)   ...       0.03 
freq.     972.14  E(vib)   ...       0.03 
freq.     973.66  E(vib)   ...       0.03 
freq.     988.73  E(vib)   ...       0.02 
freq.    1038.64  E(vib)   ...       0.02 
freq.    1048.28  E(vib)   ...       0.02 
freq.    1058.33  E(vib)   ...       0.02 
freq.    1091.22  E(vib)   ...       0.02 
freq.    1099.06  E(vib)   ...       0.02 
freq.    1100.86  E(vib)   ...       0.02 
freq.    1111.36  E(vib)   ...       0.01 
freq.    1118.49  E(vib)   ...       0.01 
freq.    1124.14  E(vib)   ...       0.01 
freq.    1133.35  E(vib)   ...       0.01 
freq.    1140.93  E(vib)   ...       0.01 
freq.    1156.29  E(vib)   ...       0.01 
freq.    1163.57  E(vib)   ...       0.01 
freq.    1192.09  E(vib)   ...       0.01 
freq.    1201.82  E(vib)   ...       0.01 
freq.    1218.24  E(vib)   ...       0.01 
freq.    1230.95  E(vib)   ...       0.01 
freq.    1236.72  E(vib)   ...       0.01 
freq.    1238.17  E(vib)   ...       0.01 
freq.    1271.84  E(vib)   ...       0.01 
freq.    1280.45  E(vib)   ...       0.01 
freq.    1286.48  E(vib)   ...       0.01 
freq.    1287.11  E(vib)   ...       0.01 
freq.    1304.61  E(vib)   ...       0.01 
freq.    1310.26  E(vib)   ...       0.01 
freq.    1327.60  E(vib)   ...       0.01 
freq.    1338.60  E(vib)   ...       0.01 
freq.    1347.76  E(vib)   ...       0.01 
freq.    1357.99  E(vib)   ...       0.01 
freq.    1388.31  E(vib)   ...       0.00 
freq.    1456.52  E(vib)   ...       0.00 
freq.    1469.81  E(vib)   ...       0.00 
freq.    1474.50  E(vib)   ...       0.00 
freq.    1776.36  E(vib)   ...       0.00 
freq.    1811.51  E(vib)   ...       0.00 
freq.    2860.70  E(vib)   ...       0.00 
freq.    2867.87  E(vib)   ...       0.00 
freq.    2893.00  E(vib)   ...       0.00 
freq.    2933.42  E(vib)   ...       0.00 
freq.    2972.80  E(vib)   ...       0.00 
freq.    3032.64  E(vib)   ...       0.00 
freq.    3055.79  E(vib)   ...       0.00 
freq.    3061.89  E(vib)   ...       0.00 
freq.    3311.59  E(vib)   ...       0.00 
freq.    3348.54  E(vib)   ...       0.00 
freq.    3367.91  E(vib)   ...       0.00 
freq.    3396.36  E(vib)   ...       0.00 
freq.    3408.63  E(vib)   ...       0.00 
freq.    3437.00  E(vib)   ...       0.00 
freq.    3491.10  E(vib)   ...       0.00 
freq.    3534.04  E(vib)   ...       0.00 
freq.    3638.95  E(vib)   ...       0.00 

------------
INNER ENERGY
------------

The inner energy is: U= E(el) + E(ZPE) + E(vib) + E(rot) + E(trans)
    E(el)   - is the total energy from the electronic structure calculation
              = E(kin-el) + E(nuc-el) + E(el-el) + E(nuc-nuc)
    E(ZPE)  - the the zero temperature vibrational energy from the frequency calculation
    E(vib)  - the the finite temperature correction to E(ZPE) due to population
              of excited vibrational states
    E(rot)  - is the rotational thermal energy
    E(trans)- is the translational thermal energy

Summary of contributions to the inner energy U:
Electronic energy                ...    -83.49832976 Eh
Zero point energy                ...      0.28535669 Eh     179.06 kcal/mol
Thermal vibrational correction   ...      0.02371731 Eh      14.88 kcal/mol
Thermal rotational correction    ...      0.00141627 Eh       0.89 kcal/mol
Thermal translational correction ...      0.00141627 Eh       0.89 kcal/mol
-----------------------------------------------------------------------
Total thermal energy                    -83.18642322 Eh


Summary of corrections to the electronic energy:
(perhaps to be used in another calculation)
Total thermal correction                  0.02654985 Eh      16.66 kcal/mol
Non-thermal (ZPE) correction              0.28535669 Eh     179.06 kcal/mol
-----------------------------------------------------------------------
Total correction                          0.31190654 Eh     195.72 kcal/mol


--------
ENTHALPY
--------

The enthalpy is H = U + kB*T
                kB is Boltzmann's constant
Total free energy                 ...    -83.18642322 Eh 
Thermal Enthalpy correction       ...      0.00094421 Eh       0.59 kcal/mol
-----------------------------------------------------------------------
Total Enthalpy                    ...    -83.18547901 Eh


Note: Only C1 symmetry has been detected, increase convergence thresholds 
      if your molecule has a higher symmetry. Symmetry factor of 1.0 is   
      used for the rotational entropy correction. 
 

Note: Rotational entropy computed according to Herzberg 
Infrared and Raman Spectra, Chapter V,1, Van Nostrand Reinhold, 1945 
Point Group:  C1, Symmetry Number:   1  
Rotational constants in cm-1:     0.016919     0.004325     0.003945 

Vibrational entropy computed according to the QRRHO of S. Grimme
Chem.Eur.J. 2012 18 9955


-------
ENTROPY
-------

The entropy contributions are T*S = T*(S(el)+S(vib)+S(rot)+S(trans))
     S(el)   - electronic entropy
     S(vib)  - vibrational entropy
     S(rot)  - rotational entropy
     S(trans)- translational entropy
The entropies will be listed as multiplied by the temperature to get
units of energy

Electronic entropy                ...      0.00000000 Eh      0.00 kcal/mol
Vibrational entropy               ...      0.04232245 Eh     26.56 kcal/mol
Rotational entropy                ...      0.01661944 Eh     10.43 kcal/mol
Translational entropy             ...      0.02070180 Eh     12.99 kcal/mol
-----------------------------------------------------------------------
Final entropy term                ...      0.07964370 Eh     49.98 kcal/mol

In case the symmetry of your molecule has not been determined correctly
or in case you have a reason to use a different symmetry number we print 
out the resulting rotational entropy values for sn=1,12 :
 --------------------------------------------------------
|  sn= 1 | S(rot)=       0.01661944 Eh     10.43 kcal/mol|
|  sn= 2 | S(rot)=       0.01596498 Eh     10.02 kcal/mol|
|  sn= 3 | S(rot)=       0.01558215 Eh      9.78 kcal/mol|
|  sn= 4 | S(rot)=       0.01531052 Eh      9.61 kcal/mol|
|  sn= 5 | S(rot)=       0.01509984 Eh      9.48 kcal/mol|
|  sn= 6 | S(rot)=       0.01492769 Eh      9.37 kcal/mol|
|  sn= 7 | S(rot)=       0.01478215 Eh      9.28 kcal/mol|
|  sn= 8 | S(rot)=       0.01465607 Eh      9.20 kcal/mol|
|  sn= 9 | S(rot)=       0.01454486 Eh      9.13 kcal/mol|
|  sn=10 | S(rot)=       0.01444538 Eh      9.06 kcal/mol|
|  sn=11 | S(rot)=       0.01435539 Eh      9.01 kcal/mol|
|  sn=12 | S(rot)=       0.01427323 Eh      8.96 kcal/mol|
 --------------------------------------------------------


-------------------
GIBBS FREE ENERGY
-------------------

The Gibbs free energy is G = H - T*S

Total enthalpy                    ...    -83.18547901 Eh 
Total entropy correction          ...     -0.07964370 Eh    -49.98 kcal/mol
-----------------------------------------------------------------------
Final Gibbs free energy         ...    -83.26512271 Eh

For completeness - the Gibbs free energy minus the electronic energy
G-E(el)                           ...      0.23320706 Eh    146.34 kcal/mol



Timings for individual modules:

Sum of individual times         ...      596.220 sec (=   9.937 min)
Geometry relaxation             ...        1.776 sec (=   0.030 min)   0.3 %
Numerical frequency calculation ...      592.920 sec (=   9.882 min)  99.4 %
XTB module                      ...        1.524 sec (=   0.025 min)   0.3 %
                             ****ORCA TERMINATED NORMALLY****
TOTAL RUN TIME: 0 days 0 hours 9 minutes 57 seconds 580 msec
