
                                 *****************
                                 * O   R   C   A *
                                 *****************

                                            #,                                       
                                            ###                                      
                                            ####                                     
                                            #####                                    
                                            ######                                   
                                           ########,                                 
                                     ,,################,,,,,                         
                               ,,#################################,,                 
                          ,,##########################################,,             
                       ,#########################################, ''#####,          
                    ,#############################################,,   '####,        
                  ,##################################################,,,,####,       
                ,###########''''           ''''###############################       
              ,#####''   ,,,,##########,,,,          '''####'''          '####       
            ,##' ,,,,###########################,,,                        '##       
           ' ,,###''''                  '''############,,,                           
         ,,##''                                '''############,,,,        ,,,,,,###''
      ,#''                                            '''#######################'''  
     '                                                          ''''####''''         
             ,#######,   #######,   ,#######,      ##                                
            ,#'     '#,  ##    ##  ,#'     '#,    #''#        ######   ,####,        
            ##       ##  ##   ,#'  ##            #'  '#       #        #'  '#        
            ##       ##  #######   ##           ,######,      #####,   #    #        
            '#,     ,#'  ##    ##  '#,     ,#' ,#      #,         ##   #,  ,#        
             '#######'   ##     ##  '#######'  #'      '#     #####' # '####'        



                  #######################################################
                  #                        -***-                        #
                  #          Department of theory and spectroscopy      #
                  #    Directorship and core code : Frank Neese         #
                  #        Max Planck Institute fuer Kohlenforschung    #
                  #                Kaiser Wilhelm Platz 1               #
                  #                 D-45470 Muelheim/Ruhr               #
                  #                      Germany                        #
                  #                                                     #
                  #                  All rights reserved                #
                  #                        -***-                        #
                  #######################################################


                         Program Version 5.0.3 -  RELEASE  -


 With contributions from (in alphabetic order):
   Daniel Aravena         : Magnetic Suceptibility
   Michael Atanasov       : Ab Initio Ligand Field Theory (pilot matlab implementation)
   Alexander A. Auer      : GIAO ZORA, VPT2 properties, NMR spectrum
   Ute Becker             : Parallelization
   Giovanni Bistoni       : ED, misc. LED, open-shell LED, HFLD
   Martin Brehm           : Molecular dynamics
   Dmytro Bykov           : SCF Hessian
   Vijay G. Chilkuri      : MRCI spin determinant printing, contributions to CSF-ICE
   Dipayan Datta          : RHF DLPNO-CCSD density
   Achintya Kumar Dutta   : EOM-CC, STEOM-CC
   Dmitry Ganyushin       : Spin-Orbit,Spin-Spin,Magnetic field MRCI
   Miquel Garcia          : C-PCM and meta-GGA Hessian, CC/C-PCM, Gaussian charge scheme
   Yang Guo               : DLPNO-NEVPT2, F12-NEVPT2, CIM, IAO-localization
   Andreas Hansen         : Spin unrestricted coupled pair/coupled cluster methods
   Benjamin Helmich-Paris : MC-RPA, TRAH-SCF, COSX integrals
   Lee Huntington         : MR-EOM, pCC
   Robert Izsak           : Overlap fitted RIJCOSX, COSX-SCS-MP3, EOM
   Marcus Kettner         : VPT2
   Christian Kollmar      : KDIIS, OOCD, Brueckner-CCSD(T), CCSD density, CASPT2, CASPT2-K
   Simone Kossmann        : Meta GGA functionals, TD-DFT gradient, OOMP2, MP2 Hessian
   Martin Krupicka        : Initial AUTO-CI
   Lucas Lang             : DCDCAS
   Marvin Lechner         : AUTO-CI (C++ implementation), FIC-MRCC
   Dagmar Lenk            : GEPOL surface, SMD
   Dimitrios Liakos       : Extrapolation schemes; Compound Job, initial MDCI parallelization
   Dimitrios Manganas     : Further ROCIS development; embedding schemes
   Dimitrios Pantazis     : SARC Basis sets
   Anastasios Papadopoulos: AUTO-CI, single reference methods and gradients
   Taras Petrenko         : DFT Hessian,TD-DFT gradient, ASA, ECA, R-Raman, ABS, FL, XAS/XES, NRVS
   Peter Pinski           : DLPNO-MP2, DLPNO-MP2 Gradient
   Christoph Reimann      : Effective Core Potentials
   Marius Retegan         : Local ZFS, SOC
   Christoph Riplinger    : Optimizer, TS searches, QM/MM, DLPNO-CCSD(T), (RO)-DLPNO pert. Triples
   Tobias Risthaus        : Range-separated hybrids, TD-DFT gradient, RPA, STAB
   Michael Roemelt        : Original ROCIS implementation
   Masaaki Saitow         : Open-shell DLPNO-CCSD energy and density
   Barbara Sandhoefer     : DKH picture change effects
   Avijit Sen             : IP-ROCIS
   Kantharuban Sivalingam : CASSCF convergence, NEVPT2, FIC-MRCI
   Bernardo de Souza      : ESD, SOC TD-DFT
   Georgi Stoychev        : AutoAux, RI-MP2 NMR, DLPNO-MP2 response
   Willem Van den Heuvel  : Paramagnetic NMR
   Boris Wezisla          : Elementary symmetry handling
   Frank Wennmohs         : Technical directorship


 We gratefully acknowledge several colleagues who have allowed us to
 interface, adapt or use parts of their codes:
   Stefan Grimme, W. Hujo, H. Kruse, P. Pracht,  : VdW corrections, initial TS optimization,
                  C. Bannwarth, S. Ehlert          DFT functionals, gCP, sTDA/sTD-DF
   Ed Valeev, F. Pavosevic, A. Kumar             : LibInt (2-el integral package), F12 methods
   Garnet Chan, S. Sharma, J. Yang, R. Olivares  : DMRG
   Ulf Ekstrom                                   : XCFun DFT Library
   Mihaly Kallay                                 : mrcc  (arbitrary order and MRCC methods)
   Jiri Pittner, Ondrej Demel                    : Mk-CCSD
   Frank Weinhold                                : gennbo (NPA and NBO analysis)
   Christopher J. Cramer and Donald G. Truhlar   : smd solvation model
   Lars Goerigk                                  : TD-DFT with DH, B97 family of functionals
   V. Asgeirsson, H. Jonsson                     : NEB implementation
   FAccTs GmbH                                   : IRC, NEB, NEB-TS, DLPNO-Multilevel, CI-OPT
                                                   MM, QMMM, 2- and 3-layer-ONIOM, Crystal-QMMM,
                                                   LR-CPCM, SF, NACMEs, symmetry and pop. for TD-DFT,
                                                   nearIR, NL-DFT gradient (VV10), updates on ESD,
                                                   ML-optimized integration grids
   S Lehtola, MJT Oliveira, MAL Marques          : LibXC Library
   Liviu Ungur et al                             : ANISO software


 Your calculation uses the libint2 library for the computation of 2-el integrals
 For citations please refer to: http://libint.valeyev.net

 Your ORCA version has been built with support for libXC version: 5.1.0
 For citations please refer to: https://tddft.org/programs/libxc/

 This ORCA versions uses:
   CBLAS   interface :  Fast vector & matrix operations
   LAPACKE interface :  Fast linear algebra routines
   SCALAPACK package :  Parallel linear algebra routines
   Shared memory     :  Shared parallel matrices
   BLAS/LAPACK       :  OpenBLAS 0.3.15  USE64BITINT DYNAMIC_ARCH NO_AFFINITY Haswell SINGLE_THREADED
        Core in use  :  Haswell
   Copyright (c) 2011-2014, The OpenBLAS Project


Your calculation utilizes the semiempirical GFN2-xTB method
Please cite in your paper:
C. Bannwarth, Ehlert S., S. Grimme,  J. Chem. Theory Comput., 15, (2019), 1652.
   

================================================================================

================================================================================
                                        WARNINGS
                       Please study these warnings very carefully!
================================================================================


WARNING: Geometry Optimization
  ===> : Switching off AutoStart
         For restart on a previous wavefunction, please use MOREAD

WARNING: Found dipole moment calculation with XTB calculation
  ===> : Switching off dipole moment calculation


WARNING: TRAH-SCF for XTB is not implemented!
  ===> : Turning TRAH off!

================================================================================
                                       INPUT FILE
================================================================================
NAME = /tmp/31.inp
|  1> ! XTB2 opt numfreq
|  2> * xyz 0 1
|  3> C -2.369965 2.659207 1.244947
|  4> C -2.337044 1.184014 1.495787
|  5> O -2.302331 .634014 2.585303
|  6> C -2.445785 .262505 .244866
|  7> O -3.706506 .604977 -.294518
|  8> O -2.415759 -1.063815 .644674
|  9> C -1.366143 .461336 -.879379
| 10> O -1.691573 1.601230 -1.639461
| 11> C -1.486701 -.774954 -1.791856
| 12> O -.607954 -1.550382 -2.038845
| 13> O -2.704220 -.874978 -2.335603
| 14> C .112058 .641601 -.433110
| 15> O .364820 2.018196 -.182508
| 16> C .580518 -.101703 .836399
| 17> O 1.832846 .438559 1.218153
| 18> C .711046 -1.636494 .707369
| 19> O .936880 -2.186818 1.978321
| 20> C 1.806971 -2.093051 -.267453
| 21> O 3.092432 -1.784711 .236898
| 22> P 3.871570 -.518960 -.357652
| 23> O 3.136500 .312036 -1.320042
| 24> O 5.172447 -1.180485 -.999700
| 25> O 4.525513 .162679 .913533
| 26> H -2.541434 3.162606 2.223625
| 27> H -3.188153 2.901747 .477409
| 28> H -1.349812 2.984002 .809210
| 29> H -4.007415 -.131480 -.848254
| 30> H -2.462894 -1.081362 1.626647
| 31> H -2.660985 1.682516 -1.639963
| 32> H -2.738636 -1.646808 -2.925308
| 33> H .744858 .313699 -1.271106
| 34> H .327423 2.476463 -1.033854
| 35> H -.122601 .087407 1.660037
| 36> H 1.810524 1.367868 .920073
| 37> H -.246827 -2.036858 .367380
| 38> H 1.851136 -1.979926 2.215564
| 39> H 1.659281 -1.643492 -1.249551
| 40> H 1.756474 -3.182848 -.352479
| 41> H 5.309422 -.819382 -1.873933
| 42> H 3.841927 .413936 1.536802
| 43> *
| 44> 
| 45>                          ****END OF INPUT****
================================================================================

                       *****************************
                       * Geometry Optimization Run *
                       *****************************

Geometry optimization settings:
Update method            Update   .... BFGS
Choice of coordinates    CoordSys .... Z-matrix Internals
Initial Hessian          InHess   .... Almoef's Model

Convergence Tolerances:
Energy Change            TolE     ....  5.0000e-06 Eh
Max. Gradient            TolMAXG  ....  3.0000e-04 Eh/bohr
RMS Gradient             TolRMSG  ....  1.0000e-04 Eh/bohr
Max. Displacement        TolMAXD  ....  4.0000e-03 bohr
RMS Displacement         TolRMSD  ....  2.0000e-03 bohr
Strict Convergence                ....  False
------------------------------------------------------------------------------
                        ORCA OPTIMIZATION COORDINATE SETUP
------------------------------------------------------------------------------

The optimization will be done in new redundant internal coordinates
Making redundant internal coordinates   ...  (new redundants) done
Evaluating the initial hessian          ...  (Almloef) done
Evaluating the coordinates              ...  done
Calculating the B-matrix                .... done
Calculating the G-matrix                .... done
Diagonalizing the G-matrix              .... done
Small eigenvalue found = 4.097e-03
Small eigenvalue found = 5.680e-03
Small eigenvalue found = 8.499e-03
Small eigenvalue found = 1.181e-02
Small eigenvalue found = 1.769e-02
Small eigenvalue found = 2.317e-02
The first mode is                       ....   84
The number of degrees of freedom        ....  114

    -----------------------------------------------------------------
                    Redundant Internal Coordinates


    -----------------------------------------------------------------
         Definition                    Initial Value    Approx d2E/dq
    -----------------------------------------------------------------
      1. B(C   1,C   0)                  1.4967         0.422142   
      2. B(O   2,C   1)                  1.2210         1.041271   
      3. B(C   3,C   1)                  1.5575         0.337678   
      4. B(O   4,C   3)                  1.4134         0.513542   
      5. B(O   5,C   3)                  1.3856         0.568727   
      6. B(C   6,C   3)                  1.5713         0.320947   
      7. B(O   7,C   6)                  1.4082         0.523433   
      8. B(C   8,C   6)                  1.5413         0.358403   
      9. B(O   9,C   8)                  1.1977         1.134164   
     10. B(O  10,C   8)                  1.3372         0.679463   
     11. B(C  11,C   6)                  1.5546         0.341316   
     12. B(O  12,C  11)                  1.4219         0.497777   
     13. B(C  13,C  11)                  1.5439         0.354985   
     14. B(O  14,C  13)                  1.4163         0.508035   
     15. B(C  15,C  13)                  1.5457         0.352604   
     16. B(O  16,C  15)                  1.4033         0.532965   
     17. B(C  17,C  15)                  1.5362         0.365222   
     18. B(O  18,C  17)                  1.4149         0.510739   
     19. B(P  19,O  18)                  1.6008         0.866955   
     20. B(O  20,P  19)                  1.4687         1.408673   
     21. B(O  21,P  19)                  1.5944         0.887681   
     22. B(O  22,P  19)                  1.5837         0.923196   
     23. B(H  23,C   0)                  1.1138         0.329913   
     24. B(H  24,C   0)                  1.1478         0.291244   
     25. B(H  25,C   0)                  1.1559         0.282688   
     26. B(H  26,O   4)                  0.9693         0.502496   
     27. B(H  27,O   5)                  0.9833         0.477372   
     28. B(H  28,O   7)                  0.9728         0.496047   
     29. B(H  29,O  10)                  0.9719         0.497651   
     30. B(H  30,C  11)                  1.1001         0.347000   
     31. B(H  31,O  12)                  0.9676         0.505690   
     32. B(H  32,C  13)                  1.0993         0.347971   
     33. B(H  33,O  14)                  0.9762         0.489916   
     34. B(H  34,C  15)                  1.0924         0.356899   
     35. B(H  35,O  16)                  0.9669         0.506887   
     36. B(H  36,C  17)                  1.0902         0.359899   
     37. B(H  37,C  17)                  1.0943         0.354489   
     38. B(H  38,O  21)                  0.9557         0.528155   
     39. B(H  39,O  22)                  0.9586         0.522667   
     40. A(C   1,C   0,H  25)          108.7061         0.318023   
     41. A(H  23,C   0,H  24)          112.4783         0.277599   
     42. A(C   1,C   0,H  23)          107.5525         0.326173   
     43. A(C   1,C   0,H  24)          109.6349         0.319574   
     44. A(H  24,C   0,H  25)          108.5224         0.271118   
     45. A(H  23,C   0,H  25)          109.8831         0.276330   
     46. A(C   0,C   1,C   3)          116.5518         0.364671   
     47. A(C   0,C   1,O   2)          126.4526         0.441773   
     48. A(O   2,C   1,C   3)          116.8821         0.424390   
     49. A(C   1,C   3,O   5)          109.4562         0.381483   
     50. A(O   4,C   3,O   5)          111.1855         0.407950   
     51. A(C   1,C   3,O   4)          103.0276         0.374804   
     52. A(C   1,C   3,C   6)          116.8593         0.348090   
     53. A(O   5,C   3,C   6)          108.2209         0.378138   
     54. A(O   4,C   3,C   6)          108.0093         0.371535   
     55. A(C   3,O   4,H  26)          108.1088         0.356307   
     56. A(C   3,O   5,H  27)          107.7108         0.359397   
     57. A(C   3,C   6,C   8)          105.5653         0.351607   
     58. A(O   7,C   6,C   8)          108.1598         0.379937   
     59. A(C   3,C   6,O   7)          109.2582         0.372758   
     60. A(C   8,C   6,C  11)          109.7147         0.355290   
     61. A(O   7,C   6,C  11)          106.3095         0.376737   
     62. A(C   3,C   6,C  11)          117.5558         0.348719   
     63. A(C   6,O   7,H  28)          107.3499         0.356680   
     64. A(C   6,C   8,O   9)          125.7332         0.435582   
     65. A(C   6,C   8,O  10)          111.8366         0.397634   
     66. A(O   9,C   8,O  10)          122.3953         0.486276   
     67. A(C   8,O  10,H  29)          109.7773         0.373170   
     68. A(C  13,C  11,H  30)          107.9585         0.319673   
     69. A(O  12,C  11,H  30)          108.6980         0.335968   
     70. A(C   6,C  11,H  30)          107.0812         0.317632   
     71. A(O  12,C  11,C  13)          105.5009         0.376023   
     72. A(C   6,C  11,C  13)          117.9525         0.354713   
     73. A(C   6,C  11,O  12)          109.3837         0.373483   
     74. A(C  11,O  12,H  31)          107.2533         0.354808   
     75. A(C  15,C  13,H  32)          106.6998         0.319468   
     76. A(O  14,C  13,H  32)          107.3358         0.337268   
     77. A(C  11,C  13,H  32)          109.8268         0.319819   
     78. A(O  14,C  13,C  15)          109.0620         0.376912   
     79. A(C  11,C  13,C  15)          115.7869         0.356677   
     80. A(C  11,C  13,O  14)          107.8353         0.377351   
     81. A(C  13,O  14,H  33)          105.1063         0.354130   
     82. A(C  13,C  15,H  34)          108.4111         0.320793   
     83. A(O  16,C  15,H  34)          106.2161         0.341417   
     84. A(C  17,C  15,H  34)          108.6101         0.322645   
     85. A(O  16,C  15,C  17)          110.0828         0.382376   
     86. A(C  13,C  15,C  17)          114.0994         0.358405   
     87. A(C  13,C  15,O  16)          109.1100         0.380051   
     88. A(C  15,O  16,H  35)          106.8864         0.359094   
     89. A(H  36,C  17,H  37)          109.5387         0.290098   
     90. A(O  18,C  17,H  37)          106.6581         0.338612   
     91. A(C  15,C  17,H  37)          108.2026         0.322287   
     92. A(C  15,C  17,H  36)          110.6386         0.323088   
     93. A(C  15,C  17,O  18)          110.9278         0.379561   
     94. A(O  18,C  17,H  36)          110.7535         0.339469   
     95. A(C  17,O  18,P  19)          118.8235         0.469784   
     96. A(O  18,P  19,O  21)          102.6272         0.557884   
     97. A(O  18,P  19,O  20)          116.5606         0.609545   
     98. A(O  21,P  19,O  22)           99.4913         0.564602   
     99. A(O  20,P  19,O  22)          119.2808         0.617004   
    100. A(O  18,P  19,O  22)          104.0739         0.562066   
    101. A(O  20,P  19,O  21)          112.2865         0.612336   
    102. A(P  19,O  21,H  38)          109.1789         0.421472   
    103. A(P  19,O  22,H  39)          109.8915         0.423645   
    104. D(O   2,C   1,C   0,H  25)    108.9428         0.013173   
    105. D(C   3,C   1,C   0,H  23)    166.0001         0.013173   
    106. D(O   2,C   1,C   0,H  23)     -9.9849         0.013173   
    107. D(C   3,C   1,C   0,H  24)     43.4110         0.013173   
    108. D(O   2,C   1,C   0,H  24)   -132.5740         0.013173   
    109. D(C   3,C   1,C   0,H  25)    -75.0722         0.013173   
    110. D(O   5,C   3,C   1,O   2)     -2.9397         0.008677   
    111. D(O   4,C   3,C   1,C   0)    -60.9513         0.008677   
    112. D(O   4,C   3,C   1,O   2)    115.4285         0.008677   
    113. D(C   6,C   3,C   1,C   0)     57.2708         0.008677   
    114. D(C   6,C   3,C   1,O   2)   -126.3494         0.008677   
    115. D(O   5,C   3,C   1,C   0)   -179.3195         0.008677   
    116. D(H  26,O   4,C   3,C   6)     77.5163         0.020888   
    117. D(H  26,O   4,C   3,O   5)    -41.0793         0.020888   
    118. D(H  26,O   4,C   3,C   1)   -158.2308         0.020888   
    119. D(H  27,O   5,C   3,O   4)   -105.1914         0.025879   
    120. D(H  27,O   5,C   3,C   6)    136.3404         0.025879   
    121. D(H  27,O   5,C   3,C   1)      7.9698         0.025879   
    122. D(C  11,C   6,C   3,O   4)    158.8994         0.008438   
    123. D(C  11,C   6,C   3,C   1)     43.4103         0.008438   
    124. D(C   8,C   6,C   3,O   5)     42.0757         0.008438   
    125. D(C   8,C   6,C   3,C   1)    166.1168         0.008438   
    126. D(O   7,C   6,C   3,C   1)    -77.7774         0.008438   
    127. D(C   8,C   6,C   3,O   4)    -78.3941         0.008438   
    128. D(O   7,C   6,C   3,O   5)    158.1815         0.008438   
    129. D(C  11,C   6,C   3,O   5)    -80.6308         0.008438   
    130. D(O   7,C   6,C   3,O   4)     37.7117         0.008438   
    131. D(H  28,O   7,C   6,C  11)   -158.8281         0.021734   
    132. D(H  28,O   7,C   6,C   3)    -31.0353         0.021734   
    133. D(H  28,O   7,C   6,C   8)     83.4047         0.021734   
    134. D(O   9,C   8,C   6,C   3)   -121.8824         0.009666   
    135. D(O  10,C   8,C   6,C  11)   -172.1811         0.009666   
    136. D(O  10,C   8,C   6,O   7)    -56.6191         0.009666   
    137. D(O  10,C   8,C   6,C   3)     60.2335         0.009666   
    138. D(O   9,C   8,C   6,C  11)      5.7030         0.009666   
    139. D(O   9,C   8,C   6,O   7)    121.2650         0.009666   
    140. D(H  29,O  10,C   8,O   9)      0.2771         0.034381   
    141. D(H  29,O  10,C   8,C   6)    178.2430         0.034381   
    142. D(H  30,C  11,C   6,O   7)    -82.5196         0.009426   
    143. D(H  30,C  11,C   6,C   3)    154.7757         0.009426   
    144. D(C  13,C  11,C   6,C   8)    -87.6733         0.009426   
    145. D(C  13,C  11,C   6,O   7)    155.5954         0.009426   
    146. D(C  13,C  11,C   6,C   3)     32.8908         0.009426   
    147. D(O  12,C  11,C   6,O   7)     35.1025         0.009426   
    148. D(O  12,C  11,C   6,C   3)    -87.6022         0.009426   
    149. D(H  30,C  11,C   6,C   8)     34.2116         0.009426   
    150. D(O  12,C  11,C   6,C   8)    151.8338         0.009426   
    151. D(H  31,O  12,C  11,H  30)     48.2863         0.019584   
    152. D(H  31,O  12,C  11,C  13)    163.8593         0.019584   
    153. D(H  31,O  12,C  11,C   6)    -68.3165         0.019584   
    154. D(H  32,C  13,C  11,O  12)     72.3043         0.010131   
    155. D(H  32,C  13,C  11,C   6)    -50.1809         0.010131   
    156. D(C  15,C  13,C  11,H  30)    -50.7233         0.010131   
    157. D(C  15,C  13,C  11,O  12)   -166.8023         0.010131   
    158. D(C  15,C  13,C  11,C   6)     70.7125         0.010131   
    159. D(O  14,C  13,C  11,H  30)     71.7202         0.010131   
    160. D(O  14,C  13,C  11,O  12)    -44.3589         0.010131   
    161. D(H  32,C  13,C  11,H  30)   -171.6167         0.010131   
    162. D(O  14,C  13,C  11,C   6)   -166.8440         0.010131   
    163. D(H  33,O  14,C  13,H  32)    -88.3045         0.020426   
    164. D(H  33,O  14,C  13,C  15)    156.4589         0.020426   
    165. D(H  33,O  14,C  13,C  11)     29.9695         0.020426   
    166. D(O  16,C  15,C  13,C  11)   -170.8461         0.010005   
    167. D(H  34,C  15,C  13,O  14)   -177.3716         0.010005   
    168. D(H  34,C  15,C  13,C  11)    -55.5800         0.010005   
    169. D(C  17,C  15,C  13,H  32)   -171.8625         0.010005   
    170. D(C  17,C  15,C  13,O  14)    -56.2167         0.010005   
    171. D(C  17,C  15,C  13,C  11)     65.5749         0.010005   
    172. D(O  16,C  15,C  13,H  32)    -48.2835         0.010005   
    173. D(H  34,C  15,C  13,H  32)     66.9827         0.010005   
    174. D(O  16,C  15,C  13,O  14)     67.3623         0.010005   
    175. D(H  35,O  16,C  15,H  34)    169.2611         0.022569   
    176. D(H  35,O  16,C  15,C  17)     51.8614         0.022569   
    177. D(H  35,O  16,C  15,C  13)    -74.0679         0.022569   
    178. D(H  37,C  17,C  15,H  34)    -53.9885         0.010681   
    179. D(H  37,C  17,C  15,O  16)     61.9150         0.010681   
    180. D(H  37,C  17,C  15,C  13)   -175.0329         0.010681   
    181. D(H  36,C  17,C  15,H  34)     66.0154         0.010681   
    182. D(H  36,C  17,C  15,O  16)   -178.0812         0.010681   
    183. D(H  36,C  17,C  15,C  13)    -55.0291         0.010681   
    184. D(O  18,C  17,C  15,H  34)   -170.6568         0.010681   
    185. D(O  18,C  17,C  15,O  16)    -54.7534         0.010681   
    186. D(O  18,C  17,C  15,C  13)     68.2987         0.010681   
    187. D(P  19,O  18,C  17,H  37)    139.9866         0.020652   
    188. D(P  19,O  18,C  17,H  36)     20.8625         0.020652   
    189. D(P  19,O  18,C  17,C  15)   -102.3991         0.020652   
    190. D(O  22,P  19,O  18,C  17)    138.6381         0.013014   
    191. D(O  21,P  19,O  18,C  17)   -118.0426         0.013014   
    192. D(O  20,P  19,O  18,C  17)      5.0836         0.013014   
    193. D(H  38,O  21,P  19,O  22)   -119.4654         0.013613   
    194. D(H  38,O  21,P  19,O  20)      7.7227         0.013613   
    195. D(H  38,O  21,P  19,O  18)    133.6699         0.013613   
    196. D(H  39,O  22,P  19,O  21)   -165.1070         0.014680   
    197. D(H  39,O  22,P  19,O  20)     72.5782         0.014680   
    198. D(H  39,O  22,P  19,O  18)    -59.4182         0.014680   
    -----------------------------------------------------------------

Number of atoms                         .... 40
Number of degrees of freedom            .... 198

         *************************************************************
         *                GEOMETRY OPTIMIZATION CYCLE   1            *
         *************************************************************
---------------------------------
CARTESIAN COORDINATES (ANGSTROEM)
---------------------------------
  C    -2.369965    2.659207    1.244947
  C    -2.337044    1.184014    1.495787
  O    -2.302331    0.634014    2.585303
  C    -2.445785    0.262505    0.244866
  O    -3.706506    0.604977   -0.294518
  O    -2.415759   -1.063815    0.644674
  C    -1.366143    0.461336   -0.879379
  O    -1.691573    1.601230   -1.639461
  C    -1.486701   -0.774954   -1.791856
  O    -0.607954   -1.550382   -2.038845
  O    -2.704220   -0.874978   -2.335603
  C     0.112058    0.641601   -0.433110
  O     0.364820    2.018196   -0.182508
  C     0.580518   -0.101703    0.836399
  O     1.832846    0.438559    1.218153
  C     0.711046   -1.636494    0.707369
  O     0.936880   -2.186818    1.978321
  C     1.806971   -2.093051   -0.267453
  O     3.092432   -1.784711    0.236898
  P     3.871570   -0.518960   -0.357652
  O     3.136500    0.312036   -1.320042
  O     5.172447   -1.180485   -0.999700
  O     4.525513    0.162679    0.913533
  H    -2.541434    3.162606    2.223625
  H    -3.188153    2.901747    0.477409
  H    -1.349812    2.984002    0.809210
  H    -4.007415   -0.131480   -0.848254
  H    -2.462894   -1.081362    1.626647
  H    -2.660985    1.682516   -1.639963
  H    -2.738636   -1.646808   -2.925308
  H     0.744858    0.313699   -1.271106
  H     0.327423    2.476463   -1.033854
  H    -0.122601    0.087407    1.660037
  H     1.810524    1.367868    0.920073
  H    -0.246827   -2.036858    0.367380
  H     1.851136   -1.979926    2.215564
  H     1.659281   -1.643492   -1.249551
  H     1.756474   -3.182848   -0.352479
  H     5.309422   -0.819382   -1.873933
  H     3.841927    0.413936    1.536802

----------------------------
CARTESIAN COORDINATES (A.U.)
----------------------------
  NO LB    ZA    FRAG    MASS        X           Y           Z
   0 C   6.0000    0    12.011   -4.478585    5.025173    2.352609
   1 C   6.0000    0    12.011   -4.416373    2.237462    2.826628
   2 O   8.0000    0    15.999   -4.350775    1.198113    4.885515
   3 C   6.0000    0    12.011   -4.621864    0.496063    0.462730
   4 O   8.0000    0    15.999   -7.004281    1.143241   -0.556558
   5 O   8.0000    0    15.999   -4.565123   -2.010319    1.218257
   6 C   6.0000    0    12.011   -2.581636    0.871799   -1.661785
   7 O   8.0000    0    15.999   -3.196610    3.025886   -3.098132
   8 C   6.0000    0    12.011   -2.809458   -1.464451   -3.386117
   9 O   8.0000    0    15.999   -1.148867   -2.929797   -3.852859
  10 O   8.0000    0    15.999   -5.110235   -1.653469   -4.413650
  11 C   6.0000    0    12.011    0.211759    1.212450   -0.818459
  12 O   8.0000    0    15.999    0.689410    3.813838   -0.344890
  13 C   6.0000    0    12.011    1.097020   -0.192191    1.580565
  14 O   8.0000    0    15.999    3.463577    0.828756    2.301976
  15 C   6.0000    0    12.011    1.343682   -3.092525    1.336734
  16 O   8.0000    0    15.999    1.770447   -4.132487    3.738485
  17 C   6.0000    0    12.011    3.414680   -3.955293   -0.505413
  18 O   8.0000    0    15.999    5.843850   -3.372615    0.447672
  19 P  15.0000    0    30.974    7.316207   -0.980692   -0.675864
  20 O   8.0000    0    15.999    5.927126    0.589663   -2.494518
  21 O   8.0000    0    15.999    9.774508   -2.230793   -1.889159
  22 O   8.0000    0    15.999    8.551980    0.307419    1.726327
  23 H   1.0000    0     1.008   -4.802614    5.976459    4.202042
  24 H   1.0000    0     1.008   -6.024736    5.483507    0.902172
  25 H   1.0000    0     1.008   -2.550775    5.638947    1.529185
  26 H   1.0000    0     1.008   -7.572917   -0.248461   -1.602968
  27 H   1.0000    0     1.008   -4.654195   -2.043478    3.073917
  28 H   1.0000    0     1.008   -5.028533    3.179494   -3.099081
  29 H   1.0000    0     1.008   -5.175272   -3.112016   -5.528031
  30 H   1.0000    0     1.008    1.407578    0.592805   -2.402042
  31 H   1.0000    0     1.008    0.618740    4.679837   -1.953701
  32 H   1.0000    0     1.008   -0.231682    0.165175    3.137015
  33 H   1.0000    0     1.008    3.421395    2.584896    1.738686
  34 H   1.0000    0     1.008   -0.466435   -3.849104    0.694248
  35 H   1.0000    0     1.008    3.498140   -3.741518    4.186809
  36 H   1.0000    0     1.008    3.135587   -3.105750   -2.361309
  37 H   1.0000    0     1.008    3.319255   -6.014711   -0.666089
  38 H   1.0000    0     1.008   10.033354   -1.548408   -3.541220
  39 H   1.0000    0     1.008    7.260190    0.782226    2.904135

      -----------------------------------------------------------      
     |                   =====================                   |     
     |                           x T B                           |     
     |                   =====================                   |     
     |                         S. Grimme                         |     
     |          Mulliken Center for Theoretical Chemistry        |     
     |                    University of Bonn                     |     
      -----------------------------------------------------------      

   * xtb version 6.5.1 (579679a) compiled by 'ehlert@majestix' on 2022-07-11

   xtb is free software: you can redistribute it and/or modify it under
   the terms of the GNU Lesser General Public License as published by
   the Free Software Foundation, either version 3 of the License, or
   (at your option) any later version.
   
   xtb is distributed in the hope that it will be useful,
   but WITHOUT ANY WARRANTY; without even the implied warranty of
   MERCHANTABILITY or FITNESS FOR A PARTICULAR PURPOSE.  See the
   GNU Lesser General Public License for more details.
   
   Cite this work as:
   * C. Bannwarth, E. Caldeweyher, S. Ehlert, A. Hansen, P. Pracht,
     J. Seibert, S. Spicher, S. Grimme, WIREs Comput. Mol. Sci., 2020, 11,
     e01493. DOI: 10.1002/wcms.1493
   
   for GFN2-xTB:
   * C. Bannwarth, S. Ehlert and S. Grimme., J. Chem. Theory Comput., 2019,
     15, 1652-1671. DOI: 10.1021/acs.jctc.8b01176
   for GFN1-xTB:
   * S. Grimme, C. Bannwarth, P. Shushkov, J. Chem. Theory Comput., 2017,
     13, 1989-2009. DOI: 10.1021/acs.jctc.7b00118
   for GFN0-xTB:
   * P. Pracht, E. Caldeweyher, S. Ehlert, S. Grimme, ChemRxiv, 2019, preprint.
     DOI: 10.26434/chemrxiv.8326202.v1
   for GFN-FF:
   * S. Spicher and S. Grimme, Angew. Chem. Int. Ed., 2020, 59, 15665-15673.
     DOI: 10.1002/anie.202004239
   
   for ALPB and GBSA implicit solvation:
   * S. Ehlert, M. Stahn, S. Spicher, S. Grimme, J. Chem. Theory Comput.,
     2021, 17, 4250-4261. DOI: 10.1021/acs.jctc.1c00471
   
   for DFT-D4:
   * E. Caldeweyher, C. Bannwarth and S. Grimme, J. Chem. Phys., 2017,
     147, 034112. DOI: 10.1063/1.4993215
   * E. Caldeweyher, S. Ehlert, A. Hansen, H. Neugebauer, S. Spicher,
     C. Bannwarth and S. Grimme, J. Chem. Phys., 2019, 150, 154122.
     DOI: 10.1063/1.5090222
   * E. Caldeweyher, J.-M. Mewes, S. Ehlert and S. Grimme, Phys. Chem. Chem. Phys.
     2020, 22, 8499-8512. DOI: 10.1039/D0CP00502A
   
   for sTDA-xTB:
   * S. Grimme and C. Bannwarth, J. Chem. Phys., 2016, 145, 054103.
     DOI: 10.1063/1.4959605
   
   in the mass-spec context:
   * V. Asgeirsson, C. Bauer and S. Grimme, Chem. Sci., 2017, 8, 4879.
     DOI: 10.1039/c7sc00601b
   * J. Koopman and S. Grimme, ACS Omega 2019, 4, 12, 15120-15133.
     DOI: 10.1021/acsomega.9b02011
   
   for metadynamics refer to:
   * S. Grimme, J. Chem. Theory Comput., 2019, 155, 2847-2862
     DOI: 10.1021/acs.jctc.9b00143
   
   for SPH calculations refer to:
   * S. Spicher and S. Grimme, J. Chem. Theory Comput., 2021, 17, 1701-1714
     DOI: 10.1021/acs.jctc.0c01306
   
   with help from (in alphabetical order)
   P. Atkinson, C. Bannwarth, F. Bohle, G. Brandenburg, E. Caldeweyher
   M. Checinski, S. Dohm, S. Ehlert, S. Ehrlich, I. Gerasimov, C. Hölzer
   A. Katbashev, J. Koopman, C. Lavigne, S. Lehtola, F. März, M. Müller,
   F. Musil, H. Neugebauer, J. Pisarek, C. Plett, P. Pracht, F. Pultar,
   J. Seibert, P. Shushkov, S. Spicher, M. Stahn, M. Steiner, T. Strunk,
   J. Stückrath, T. Rose, and J. Unsleber
   
 * started run on 2023/12/07 at 10:03:24.687     

           -------------------------------------------------
          |                Calculation Setup                |
           -------------------------------------------------

          program call               : otool_xtb /tmp/31_XTB.xyz --grad -c 0 -u 0 -P 1 --namespace /tmp/31 --input /tmp/31_XTB.input.tmp --acc 1.000000
          calculation namespace      : /tmp/31
          coordinate file            : /tmp/31_XTB.xyz
          omp threads                :                     1

   ID    Z sym.   atoms
    1    6 C      1, 2, 4, 7, 9, 12, 14, 16, 18
    2    8 O      3, 5, 6, 8, 10, 11, 13, 15, 17, 19, 21-23
    3   15 P      20
    4    1 H      24-40

           -------------------------------------------------
          |                 G F N 2 - x T B                 |
           -------------------------------------------------

        Reference                      10.1021/acs.jctc.8b01176
      * Hamiltonian:
        H0-scaling (s, p, d)           1.850000    2.230000    2.230000
        zeta-weighting                 0.500000
      * Dispersion:
        s8                             2.700000
        a1                             0.520000
        a2                             5.000000
        s9                             5.000000
      * Repulsion:
        kExp                           1.500000    1.000000
        rExp                           1.000000
      * Coulomb:
        alpha                          2.000000
        third order                    shell-resolved
        anisotropic                    true
        a3                             3.000000
        a5                             4.000000
        cn-shift                       1.200000
        cn-exp                         4.000000
        max-rad                        5.000000

q/qsh data taken from xtbrestart
CAMM data taken from xtbrestart

          ...................................................
          :                      SETUP                      :
          :.................................................:
          :  # basis functions                 115          :
          :  # atomic orbitals                 114          :
          :  # shells                           64          :
          :  # electrons                       136          :
          :  max. iterations                   250          :
          :  Hamiltonian                  GFN2-xTB          :
          :  restarted?                       true          :
          :  GBSA solvation                  false          :
          :  PC potential                    false          :
          :  electronic temp.          300.0000000     K    :
          :  accuracy                    1.0000000          :
          :  -> integral cutoff          0.2500000E+02      :
          :  -> integral neglect         0.1000000E-07      :
          :  -> SCF convergence          0.1000000E-05 Eh   :
          :  -> wf. convergence          0.1000000E-03 e    :
          :  Broyden damping             0.4000000          :
          ...................................................

 iter      E             dE          RMSdq      gap      omega  full diag
   1    -84.0271075 -0.840271E+02  0.446E-01    3.00       0.0  T
   2    -84.0272919 -0.184338E-03  0.261E-01    3.06       1.0  T
   3    -84.0272581  0.337933E-04  0.570E-02    3.06       1.0  T
   4    -84.0273205 -0.623750E-04  0.149E-02    3.09       1.1  T
   5    -84.0273233 -0.281243E-05  0.825E-03    3.08       1.9  T
   6    -84.0273235 -0.183216E-06  0.167E-03    3.08       9.4  T
   7    -84.0273235 -0.138191E-07  0.705E-04    3.08      22.4  T
   8    -84.0273235 -0.223243E-08  0.325E-04    3.08      48.6  T

   *** convergence criteria satisfied after 8 iterations ***

         #    Occupation            Energy/Eh            Energy/eV
      -------------------------------------------------------------
         1        2.0000           -0.7802230             -21.2309
       ...           ...                  ...                  ...
        62        2.0000           -0.4404607             -11.9855
        63        2.0000           -0.4386263             -11.9356
        64        2.0000           -0.4342851             -11.8175
        65        2.0000           -0.4305571             -11.7161
        66        2.0000           -0.4233596             -11.5202
        67        2.0000           -0.4198078             -11.4236
        68        2.0000           -0.4054460             -11.0327 (HOMO)
        69                         -0.2921535              -7.9499 (LUMO)
        70                         -0.2697212              -7.3395
        71                         -0.0525120              -1.4289
        72                         -0.0418132              -1.1378
        73                         -0.0276340              -0.7520
       ...                                ...                  ...
       114                          1.2365720              33.6488
      -------------------------------------------------------------
                  HL-Gap            0.1132925 Eh            3.0828 eV
             Fermi-level           -0.3487997 Eh           -9.4913 eV

 SCC (total)                   0 d,  0 h,  0 min,  0.059 sec
 SCC setup                      ...        0 min,  0.000 sec (  0.480%)
 Dispersion                     ...        0 min,  0.000 sec (  0.679%)
 classical contributions        ...        0 min,  0.000 sec (  0.150%)
 integral evaluation            ...        0 min,  0.010 sec ( 16.473%)
 iterations                     ...        0 min,  0.019 sec ( 31.746%)
 molecular gradient             ...        0 min,  0.030 sec ( 49.970%)
 printout                       ...        0 min,  0.000 sec (  0.470%)

         :::::::::::::::::::::::::::::::::::::::::::::::::::::
         ::                     SUMMARY                     ::
         :::::::::::::::::::::::::::::::::::::::::::::::::::::
         :: total energy             -83.476074567143 Eh    ::
         :: gradient norm              0.060916041547 Eh/a0 ::
         :: HOMO-LUMO gap              3.082845117126 eV    ::
         ::.................................................::
         :: SCC energy               -84.027323473020 Eh    ::
         :: -> isotropic ES            0.314167383676 Eh    ::
         :: -> anisotropic ES         -0.019060014309 Eh    ::
         :: -> anisotropic XC         -0.012400251242 Eh    ::
         :: -> dispersion             -0.046266360488 Eh    ::
         :: repulsion energy           0.550214799696 Eh    ::
         :: add. restraining           0.000000000000 Eh    ::
         :: total charge              -0.000000000000 e     ::
         :::::::::::::::::::::::::::::::::::::::::::::::::::::


Property printout bound to 'properties.out'

           -------------------------------------------------
          | TOTAL ENERGY              -83.476074567143 Eh   |
          | GRADIENT NORM               0.060916041547 Eh/α |
          | HOMO-LUMO GAP               3.082845117126 eV   |
           -------------------------------------------------

------------------------------------------------------------------------
 * finished run on 2023/12/07 at 10:03:24.762     
------------------------------------------------------------------------
 total:
 * wall-time:     0 d,  0 h,  0 min,  0.076 sec
 *  cpu-time:     0 d,  0 h,  0 min,  0.076 sec
 * ratio c/w:     1.002 speedup
 SCF:
 * wall-time:     0 d,  0 h,  0 min,  0.059 sec
 *  cpu-time:     0 d,  0 h,  0 min,  0.060 sec
 * ratio c/w:     1.010 speedup


-------------------------   --------------------
FINAL SINGLE POINT ENERGY       -83.476074567140
-------------------------   --------------------

------------------------------------------------------------------------------
                         ORCA GEOMETRY RELAXATION STEP
------------------------------------------------------------------------------

Reading the OPT-File                    .... done
Getting information on internals        .... done
Copying old internal coords+grads       .... done
Making the new internal coordinates     .... (new redundants).... done
Validating the new internal coordinates .... (new redundants).... done
Calculating the B-matrix                .... done
Calculating the G,G- and P matrices     .... done
Transforming gradient to internals      .... done
Projecting the internal gradient        .... done
Number of atoms                         ....  40
Number of internal coordinates          .... 198
Current Energy                          ....   -83.476074567 Eh
Current gradient norm                   ....     0.060916042 Eh/bohr
Maximum allowed component of the step   ....  0.300
Current trust radius                    ....  0.300
Evaluating the initial hessian          ....  (Almloef) done
Projecting the Hessian                  .... done
Forming the augmented Hessian           .... done
Diagonalizing the augmented Hessian     .... done
Last element of RFO vector              ....  0.980085833
Lowest eigenvalues of augmented Hessian:
 -0.010516747  0.008502639  0.008694761  0.009449426  0.009666306
Length of the computed step             ....  0.202609112
The final length of the internal step   ....  0.202609112
Converting the step to cartesian space:
 Initial RMS(Int)=    0.0143988026
Transforming coordinates:
 Iter   0:  RMS(Cart)=    0.0508095647 RMS(Int)=    0.4453711163
 Iter   1:  RMS(Cart)=    0.0011460433 RMS(Int)=    0.0005749489
 Iter   2:  RMS(Cart)=    0.0000620842 RMS(Int)=    0.0000436902
 Iter   3:  RMS(Cart)=    0.0000037089 RMS(Int)=    0.0000025895
 Iter   4:  RMS(Cart)=    0.0000002707 RMS(Int)=    0.0000001844
 Iter   5:  RMS(Cart)=    0.0000000168 RMS(Int)=    0.0000000119
done
Storing new coordinates                 .... done

                                .--------------------.
          ----------------------|Geometry convergence|-------------------------
          Item                value                   Tolerance       Converged
          ---------------------------------------------------------------------
          RMS gradient        0.0043099250            0.0001000000      NO
          MAX gradient        0.0339696562            0.0003000000      NO
          RMS step            0.0143988026            0.0020000000      NO
          MAX step            0.1158564165            0.0040000000      NO
          ........................................................
          Max(Bonds)      0.0613      Max(Angles)    1.39
          Max(Dihed)        1.62      Max(Improp)    0.00
          ---------------------------------------------------------------------

The optimization has not yet converged - more geometry cycles are needed


    ---------------------------------------------------------------------------
                         Redundant Internal Coordinates
                            (Angstroem and degrees)

        Definition                    Value    dE/dq     Step     New-Value
    ----------------------------------------------------------------------------
     1. B(C   1,C   0)                1.4967  0.013062 -0.0160    1.4808   
     2. B(O   2,C   1)                1.2210  0.026006 -0.0131    1.2079   
     3. B(C   3,C   1)                1.5575  0.003972 -0.0060    1.5515   
     4. B(O   4,C   3)                1.4134  0.001214 -0.0012    1.4122   
     5. B(O   5,C   3)                1.3856  0.001521 -0.0014    1.3842   
     6. B(C   6,C   3)                1.5713  0.001518 -0.0024    1.5689   
     7. B(O   7,C   6)                1.4082  0.000549 -0.0005    1.4076   
     8. B(C   8,C   6)                1.5413  0.000035 -0.0000    1.5412   
     9. B(O   9,C   8)                1.1977  0.000954 -0.0004    1.1973   
    10. B(O  10,C   8)                1.3372  0.000330 -0.0003    1.3369   
    11. B(C  11,C   6)                1.5546  0.001314 -0.0020    1.5526   
    12. B(O  12,C  11)                1.4219  0.003868 -0.0040    1.4178   
    13. B(C  13,C  11)                1.5439  0.001589 -0.0023    1.5416   
    14. B(O  14,C  13)                1.4163  0.000400 -0.0004    1.4159   
    15. B(C  15,C  13)                1.5457  0.000916 -0.0013    1.5444   
    16. B(O  16,C  15)                1.4033  0.000761 -0.0007    1.4025   
    17. B(C  17,C  15)                1.5362  0.000757 -0.0011    1.5351   
    18. B(O  18,C  17)                1.4149  0.000157 -0.0002    1.4147   
    19. B(P  19,O  18)                1.6008  0.000681 -0.0004    1.6004   
    20. B(O  20,P  19)                1.4687  0.000584 -0.0002    1.4685   
    21. B(O  21,P  19)                1.5944  0.000372 -0.0002    1.5942   
    22. B(O  22,P  19)                1.5837  0.000497 -0.0003    1.5834   
    23. B(H  23,C   0)                1.1138  0.017184 -0.0267    1.0871   
    24. B(H  24,C   0)                1.1478  0.033862 -0.0594    1.0884   
    25. B(H  25,C   0)                1.1559  0.033970 -0.0613    1.0946   
    26. B(H  26,O   4)                0.9693  0.000669 -0.0007    0.9686   
    27. B(H  27,O   5)                0.9833  0.003488 -0.0038    0.9795   
    28. B(H  28,O   7)                0.9728  0.001226 -0.0013    0.9715   
    29. B(H  29,O  10)                0.9719  0.000070 -0.0001    0.9719   
    30. B(H  30,C  11)                1.1001  0.002250 -0.0033    1.0968   
    31. B(H  31,O  12)                0.9676  0.002973 -0.0030    0.9645   
    32. B(H  32,C  13)                1.0993  0.000158 -0.0002    1.0991   
    33. B(H  33,O  14)                0.9762  0.004003 -0.0042    0.9720   
    34. B(H  34,C  15)                1.0924  0.000107 -0.0002    1.0923   
    35. B(H  35,O  16)                0.9669  0.000014 -0.0000    0.9669   
    36. B(H  36,C  17)                1.0902  0.000742 -0.0011    1.0891   
    37. B(H  37,C  17)                1.0943  0.000769 -0.0011    1.0932   
    38. B(H  38,O  21)                0.9557  0.000469 -0.0005    0.9553   
    39. B(H  39,O  22)                0.9586  0.000367 -0.0004    0.9582   
    40. A(C   1,C   0,H  25)          108.71  0.002762   -0.50    108.21   
    41. A(H  23,C   0,H  24)          112.48  0.003633   -0.59    111.89   
    42. A(C   1,C   0,H  23)          107.55 -0.007389    1.39    108.94   
    43. A(C   1,C   0,H  24)          109.63 -0.000829    0.11    109.74   
    44. A(H  24,C   0,H  25)          108.52  0.000610   -0.35    108.17   
    45. A(H  23,C   0,H  25)          109.88  0.001206   -0.05    109.84   
    46. A(C   0,C   1,C   3)          116.55 -0.003530    0.52    117.07   
    47. A(C   0,C   1,O   2)          126.45  0.003500   -0.46    125.99   
    48. A(O   2,C   1,C   3)          116.88  0.000012   -0.02    116.86   
    49. A(C   1,C   3,O   5)          109.46 -0.000587    0.07    109.53   
    50. A(O   4,C   3,O   5)          111.19  0.000757    0.01    111.19   
    51. A(C   1,C   3,O   4)          103.03 -0.001127    0.25    103.28   
    52. A(C   1,C   3,C   6)          116.86  0.002819   -0.69    116.17   
    53. A(O   5,C   3,C   6)          108.22 -0.001182    0.20    108.42   
    54. A(O   4,C   3,C   6)          108.01 -0.000625    0.18    108.19   
    55. A(C   3,O   4,H  26)          108.11  0.000191   -0.03    108.08   
    56. A(C   3,O   5,H  27)          107.71  0.000337   -0.05    107.66   
    57. A(C   3,C   6,C   8)          105.57 -0.000818    0.27    105.84   
    58. A(O   7,C   6,C   8)          108.16  0.000691   -0.05    108.11   
    59. A(C   3,C   6,O   7)          109.26 -0.000415   -0.02    109.24   
    60. A(C   8,C   6,C  11)          109.71 -0.000995    0.34    110.05   
    61. A(O   7,C   6,C  11)          106.31 -0.000416   -0.01    106.30   
    62. A(C   3,C   6,C  11)          117.56  0.001927   -0.51    117.05   
    63. A(C   6,O   7,H  28)          107.35  0.000489   -0.08    107.27   
    64. A(C   6,C   8,O   9)          125.73 -0.000102    0.01    125.74   
    65. A(C   6,C   8,O  10)          111.84 -0.000130    0.02    111.85   
    66. A(O   9,C   8,O  10)          122.40  0.000233   -0.03    122.37   
    67. A(C   8,O  10,H  29)          109.78 -0.000075    0.01    109.79   
    68. A(C  13,C  11,H  30)          107.96  0.000090    0.13    108.09   
    69. A(O  12,C  11,H  30)          108.70 -0.000505    0.16    108.86   
    70. A(C   6,C  11,H  30)          107.08 -0.000113    0.21    107.29   
    71. A(O  12,C  11,C  13)          105.50  0.000733   -0.31    105.19   
    72. A(C   6,C  11,C  13)          117.95 -0.000794    0.09    118.04   
    73. A(C   6,C  11,O  12)          109.38  0.000571   -0.26    109.12   
    74. A(C  11,O  12,H  31)          107.25 -0.000206    0.03    107.29   
    75. A(C  15,C  13,H  32)          106.70 -0.000112    0.03    106.73   
    76. A(O  14,C  13,H  32)          107.34 -0.000163    0.02    107.36   
    77. A(C  11,C  13,H  32)          109.83  0.000510   -0.16    109.67   
    78. A(O  14,C  13,C  15)          109.06  0.000223   -0.00    109.06   
    79. A(C  11,C  13,C  15)          115.79 -0.000484    0.10    115.88   
    80. A(C  11,C  13,O  14)          107.84  0.000040    0.00    107.84   
    81. A(C  13,O  14,H  33)          105.11  0.000255   -0.04    105.07   
    82. A(C  13,C  15,H  34)          108.41  0.000043    0.01    108.42   
    83. A(O  16,C  15,H  34)          106.22 -0.000066    0.02    106.24   
    84. A(C  17,C  15,H  34)          108.61 -0.000073    0.04    108.65   
    85. A(O  16,C  15,C  17)          110.08  0.000104   -0.04    110.04   
    86. A(C  13,C  15,C  17)          114.10 -0.000069    0.00    114.10   
    87. A(C  13,C  15,O  16)          109.11  0.000059   -0.04    109.07   
    88. A(C  15,O  16,H  35)          106.89 -0.000002    0.00    106.89   
    89. A(H  36,C  17,H  37)          109.54 -0.000033    0.00    109.54   
    90. A(O  18,C  17,H  37)          106.66  0.000043   -0.01    106.65   
    91. A(C  15,C  17,H  37)          108.20  0.000021   -0.01    108.19   
    92. A(C  15,C  17,H  36)          110.64  0.000103   -0.02    110.62   
    93. A(C  15,C  17,O  18)          110.93 -0.000067    0.01    110.94   
    94. A(O  18,C  17,H  36)          110.75 -0.000068    0.02    110.78   
    95. A(C  17,O  18,P  19)          118.82  0.000120   -0.01    118.81   
    96. A(O  18,P  19,O  21)          102.63 -0.000000   -0.00    102.63   
    97. A(O  18,P  19,O  20)          116.56  0.000086   -0.01    116.55   
    98. A(O  21,P  19,O  22)           99.49  0.000100   -0.01     99.48   
    99. A(O  20,P  19,O  22)          119.28 -0.000036    0.00    119.29   
   100. A(O  18,P  19,O  22)          104.07 -0.000036    0.00    104.08   
   101. A(O  20,P  19,O  21)          112.29 -0.000106    0.02    112.30   
   102. A(P  19,O  21,H  38)          109.18  0.000112   -0.01    109.16   
   103. A(P  19,O  22,H  39)          109.89  0.000070   -0.01    109.88   
   104. D(O   2,C   1,C   0,H  25)    108.94 -0.001204    0.85    109.80   
   105. D(C   3,C   1,C   0,H  23)    166.00 -0.000369    1.17    167.17   
   106. D(O   2,C   1,C   0,H  23)     -9.98 -0.000004    0.40     -9.58   
   107. D(C   3,C   1,C   0,H  24)     43.41  0.000318    0.96     44.37   
   108. D(O   2,C   1,C   0,H  24)   -132.57  0.000683    0.19   -132.38   
   109. D(C   3,C   1,C   0,H  25)    -75.07 -0.001569    1.62    -73.45   
   110. D(O   5,C   3,C   1,O   2)     -2.94  0.000142   -0.43     -3.37   
   111. D(O   4,C   3,C   1,C   0)    -60.95  0.000321   -0.93    -61.88   
   112. D(O   4,C   3,C   1,O   2)    115.43  0.000155   -0.26    115.17   
   113. D(C   6,C   3,C   1,C   0)     57.27  0.000264   -0.90     56.37   
   114. D(C   6,C   3,C   1,O   2)   -126.35  0.000098   -0.23   -126.58   
   115. D(O   5,C   3,C   1,C   0)   -179.32  0.000307   -1.10   -180.42   
   116. D(H  26,O   4,C   3,C   6)     77.52 -0.001268    0.35     77.87   
   117. D(H  26,O   4,C   3,O   5)    -41.08  0.000120   -0.01    -41.08   
   118. D(H  26,O   4,C   3,C   1)   -158.23  0.001082   -0.23   -158.46   
   119. D(H  27,O   5,C   3,O   4)   -105.19 -0.000011    0.14   -105.05   
   120. D(H  27,O   5,C   3,C   6)    136.34  0.001041   -0.21    136.13   
   121. D(H  27,O   5,C   3,C   1)      7.97 -0.001289    0.48      8.45   
   122. D(C  11,C   6,C   3,O   4)    158.90  0.000766   -1.50    157.40   
   123. D(C  11,C   6,C   3,C   1)     43.41  0.000951   -1.52     41.89   
   124. D(C   8,C   6,C   3,O   5)     42.08 -0.000033   -0.95     41.12   
   125. D(C   8,C   6,C   3,C   1)    166.12  0.000278   -1.21    164.91   
   126. D(O   7,C   6,C   3,C   1)    -77.78  0.000453   -1.13    -78.91   
   127. D(C   8,C   6,C   3,O   4)    -78.39  0.000093   -1.18    -79.57   
   128. D(O   7,C   6,C   3,O   5)    158.18  0.000142   -0.88    157.30   
   129. D(C  11,C   6,C   3,O   5)    -80.63  0.000640   -1.27    -81.90   
   130. D(O   7,C   6,C   3,O   4)     37.71  0.000268   -1.11     36.60   
   131. D(H  28,O   7,C   6,C  11)   -158.83 -0.000824    0.10   -158.73   
   132. D(H  28,O   7,C   6,C   3)    -31.04  0.001018   -0.55    -31.58   
   133. D(H  28,O   7,C   6,C   8)     83.40  0.000207   -0.26     83.14   
   134. D(O   9,C   8,C   6,C   3)   -121.88 -0.000567    0.05   -121.84   
   135. D(O  10,C   8,C   6,C  11)   -172.18  0.000627   -0.16   -172.34   
   136. D(O  10,C   8,C   6,O   7)    -56.62 -0.000016   -0.02    -56.64   
   137. D(O  10,C   8,C   6,C   3)     60.23 -0.000581    0.07     60.31   
   138. D(O   9,C   8,C   6,C  11)      5.70  0.000642   -0.19      5.51   
   139. D(O   9,C   8,C   6,O   7)    121.27 -0.000002   -0.05    121.22   
   140. D(H  29,O  10,C   8,O   9)      0.28 -0.000008    0.02      0.30   
   141. D(H  29,O  10,C   8,C   6)    178.24 -0.000002   -0.01    178.24   
   142. D(H  30,C  11,C   6,O   7)    -82.52 -0.000160    0.56    -81.96   
   143. D(H  30,C  11,C   6,C   3)    154.78 -0.000594    0.94    155.71   
   144. D(C  13,C  11,C   6,C   8)    -87.67  0.000442    0.26    -87.41   
   145. D(C  13,C  11,C   6,O   7)    155.60  0.000362    0.16    155.75   
   146. D(C  13,C  11,C   6,C   3)     32.89 -0.000072    0.53     33.43   
   147. D(O  12,C  11,C   6,O   7)     35.10 -0.000520    0.73     35.83   
   148. D(O  12,C  11,C   6,C   3)    -87.60 -0.000953    1.10    -86.50   
   149. D(H  30,C  11,C   6,C   8)     34.21 -0.000080    0.67     34.88   
   150. D(O  12,C  11,C   6,C   8)    151.83 -0.000439    0.83    152.67   
   151. D(H  31,O  12,C  11,H  30)     48.29 -0.000496    0.77     49.06   
   152. D(H  31,O  12,C  11,C  13)    163.86 -0.000256    0.83    164.69   
   153. D(H  31,O  12,C  11,C   6)    -68.32 -0.000392    0.57    -67.74   
   154. D(H  32,C  13,C  11,O  12)     72.30  0.000383   -0.19     72.12   
   155. D(H  32,C  13,C  11,C   6)    -50.18 -0.000429    0.35    -49.83   
   156. D(C  15,C  13,C  11,H  30)    -50.72  0.000114   -0.11    -50.84   
   157. D(C  15,C  13,C  11,O  12)   -166.80  0.000289   -0.20   -167.00   
   158. D(C  15,C  13,C  11,C   6)     70.71 -0.000523    0.33     71.05   
   159. D(O  14,C  13,C  11,H  30)     71.72  0.000103   -0.04     71.68   
   160. D(O  14,C  13,C  11,O  12)    -44.36  0.000278   -0.13    -44.49   
   161. D(H  32,C  13,C  11,H  30)   -171.62  0.000207   -0.10   -171.72   
   162. D(O  14,C  13,C  11,C   6)   -166.84 -0.000534    0.40   -166.44   
   163. D(H  33,O  14,C  13,H  32)    -88.30 -0.000162   -0.02    -88.32   
   164. D(H  33,O  14,C  13,C  15)    156.46 -0.000058   -0.07    156.39   
   165. D(H  33,O  14,C  13,C  11)     29.97  0.000372   -0.19     29.78   
   166. D(O  16,C  15,C  13,C  11)   -170.85 -0.000096    0.10   -170.74   
   167. D(H  34,C  15,C  13,O  14)   -177.37 -0.000005    0.04   -177.33   
   168. D(H  34,C  15,C  13,C  11)    -55.58 -0.000120    0.12    -55.46   
   169. D(C  17,C  15,C  13,H  32)   -171.86  0.000026    0.06   -171.80   
   170. D(C  17,C  15,C  13,O  14)    -56.22 -0.000112    0.11    -56.11   
   171. D(C  17,C  15,C  13,C  11)     65.57 -0.000227    0.18     65.75   
   172. D(O  16,C  15,C  13,H  32)    -48.28  0.000157   -0.01    -48.30   
   173. D(H  34,C  15,C  13,H  32)     66.98  0.000133    0.00     66.98   
   174. D(O  16,C  15,C  13,O  14)     67.36  0.000019    0.03     67.39   
   175. D(H  35,O  16,C  15,H  34)    169.26 -0.000041    0.02    169.28   
   176. D(H  35,O  16,C  15,C  17)     51.86  0.000029   -0.03     51.84   
   177. D(H  35,O  16,C  15,C  13)    -74.07  0.000003    0.02    -74.04   
   178. D(H  37,C  17,C  15,H  34)    -53.99  0.000008   -0.01    -54.00   
   179. D(H  37,C  17,C  15,O  16)     61.92 -0.000055    0.02     61.94   
   180. D(H  37,C  17,C  15,C  13)   -175.03  0.000052   -0.05   -175.08   
   181. D(H  36,C  17,C  15,H  34)     66.02  0.000043   -0.02     65.99   
   182. D(H  36,C  17,C  15,O  16)   -178.08 -0.000021    0.01   -178.07   
   183. D(H  36,C  17,C  15,C  13)    -55.03  0.000086   -0.06    -55.09   
   184. D(O  18,C  17,C  15,H  34)   -170.66 -0.000018    0.00   -170.65   
   185. D(O  18,C  17,C  15,O  16)    -54.75 -0.000082    0.04    -54.72   
   186. D(O  18,C  17,C  15,C  13)     68.30  0.000025   -0.04     68.26   
   187. D(P  19,O  18,C  17,H  37)    139.99  0.000015   -0.06    139.93   
   188. D(P  19,O  18,C  17,H  36)     20.86  0.000067   -0.07     20.79   
   189. D(P  19,O  18,C  17,C  15)   -102.40  0.000029   -0.07   -102.47   
   190. D(O  22,P  19,O  18,C  17)    138.64 -0.000032   -0.01    138.63   
   191. D(O  21,P  19,O  18,C  17)   -118.04  0.000064   -0.02   -118.06   
   192. D(O  20,P  19,O  18,C  17)      5.08 -0.000019   -0.01      5.08   
   193. D(H  38,O  21,P  19,O  22)   -119.47 -0.000006    0.03   -119.43   
   194. D(H  38,O  21,P  19,O  20)      7.72 -0.000041    0.04      7.76   
   195. D(H  38,O  21,P  19,O  18)    133.67  0.000004    0.03    133.70   
   196. D(H  39,O  22,P  19,O  21)   -165.11 -0.000028   -0.01   -165.11   
   197. D(H  39,O  22,P  19,O  20)     72.58  0.000051   -0.02     72.56   
   198. D(H  39,O  22,P  19,O  18)    -59.42 -0.000006   -0.01    -59.43   
    ----------------------------------------------------------------------------

         *************************************************************
         *                GEOMETRY OPTIMIZATION CYCLE   2            *
         *************************************************************
---------------------------------
CARTESIAN COORDINATES (ANGSTROEM)
---------------------------------
  C    -2.281255    2.638394    1.246281
  C    -2.302354    1.176716    1.482255
  O    -2.268407    0.631013    2.559301
  C    -2.452859    0.262696    0.237685
  O    -3.711819    0.631376   -0.285068
  O    -2.444476   -1.063542    0.633977
  C    -1.379979    0.449453   -0.891706
  O    -1.704285    1.586045   -1.656193
  C    -1.504632   -0.789867   -1.799425
  O    -0.628200   -1.567480   -2.045635
  O    -2.723018   -0.889793   -2.340621
  C     0.094460    0.633314   -0.441356
  O     0.332550    2.006423   -0.180292
  C     0.562118   -0.106186    0.827875
  O     1.807056    0.444725    1.216993
  C     0.706346   -1.638567    0.700802
  O     0.928037   -2.185163    1.973273
  C     1.813117   -2.086144   -0.264201
  O     3.091791   -1.766258    0.249675
  P     3.864786   -0.495674   -0.341471
  O     3.130337    0.326658   -1.311414
  O     5.176197   -1.147580   -0.971268
  O     4.502757    0.194219    0.933023
  H    -2.401447    3.151172    2.197305
  H    -3.063002    2.907787    0.538549
  H    -1.315014    2.899338    0.803127
  H    -4.033523   -0.097295   -0.836200
  H    -2.482047   -1.081473    1.612569
  H    -2.672555    1.665581   -1.658372
  H    -2.759920   -1.663603   -2.927454
  H     0.732040    0.315253   -1.275145
  H     0.284084    2.471181   -1.024069
  H    -0.148134    0.078004    1.646180
  H     1.778687    1.369198    0.918222
  H    -0.245515   -2.047253    0.354383
  H     1.838719   -1.969885    2.216665
  H     1.668904   -1.639444   -1.246944
  H     1.772839   -3.175331   -0.348154
  H     5.317221   -0.787051   -1.844590
  H     3.812302    0.441136    1.549861

----------------------------
CARTESIAN COORDINATES (A.U.)
----------------------------
  NO LB    ZA    FRAG    MASS        X           Y           Z
   0 C   6.0000    0    12.011   -4.310947    4.985843    2.355130
   1 C   6.0000    0    12.011   -4.350818    2.223672    2.801057
   2 O   8.0000    0    15.999   -4.286668    1.192442    4.836377
   3 C   6.0000    0    12.011   -4.635231    0.496424    0.449160
   4 O   8.0000    0    15.999   -7.014321    1.193127   -0.538701
   5 O   8.0000    0    15.999   -4.619390   -2.009803    1.198043
   6 C   6.0000    0    12.011   -2.607782    0.849344   -1.685080
   7 O   8.0000    0    15.999   -3.220631    2.997191   -3.129752
   8 C   6.0000    0    12.011   -2.843342   -1.492633   -3.400421
   9 O   8.0000    0    15.999   -1.187127   -2.962108   -3.865690
  10 O   8.0000    0    15.999   -5.145758   -1.681466   -4.423132
  11 C   6.0000    0    12.011    0.178503    1.196790   -0.834041
  12 O   8.0000    0    15.999    0.628429    3.791589   -0.340702
  13 C   6.0000    0    12.011    1.062248   -0.200662    1.564458
  14 O   8.0000    0    15.999    3.414841    0.840409    2.299783
  15 C   6.0000    0    12.011    1.334800   -3.096444    1.324325
  16 O   8.0000    0    15.999    1.753736   -4.129360    3.728946
  17 C   6.0000    0    12.011    3.426294   -3.942240   -0.499268
  18 O   8.0000    0    15.999    5.842638   -3.337745    0.471817
  19 P  15.0000    0    30.974    7.303387   -0.936689   -0.645286
  20 O   8.0000    0    15.999    5.915479    0.617294   -2.478214
  21 O   8.0000    0    15.999    9.781595   -2.168612   -1.835430
  22 O   8.0000    0    15.999    8.508978    0.367020    1.763158
  23 H   1.0000    0     1.008   -4.538077    5.954852    4.152304
  24 H   1.0000    0     1.008   -5.788235    5.494920    1.017710
  25 H   1.0000    0     1.008   -2.485017    5.478955    1.517690
  26 H   1.0000    0     1.008   -7.622254   -0.183861   -1.580189
  27 H   1.0000    0     1.008   -4.690388   -2.043688    3.047314
  28 H   1.0000    0     1.008   -5.050397    3.147491   -3.133869
  29 H   1.0000    0     1.008   -5.215493   -3.143753   -5.532087
  30 H   1.0000    0     1.008    1.383356    0.595742   -2.409675
  31 H   1.0000    0     1.008    0.536841    4.669855   -1.935209
  32 H   1.0000    0     1.008   -0.279932    0.147406    3.110829
  33 H   1.0000    0     1.008    3.361232    2.587409    1.735188
  34 H   1.0000    0     1.008   -0.463955   -3.868747    0.669687
  35 H   1.0000    0     1.008    3.474675   -3.722543    4.188890
  36 H   1.0000    0     1.008    3.153772   -3.098100   -2.356383
  37 H   1.0000    0     1.008    3.350181   -6.000506   -0.657915
  38 H   1.0000    0     1.008   10.048091   -1.487312   -3.485771
  39 H   1.0000    0     1.008    7.204206    0.833625    2.928812

      -----------------------------------------------------------      
     |                   =====================                   |     
     |                           x T B                           |     
     |                   =====================                   |     
     |                         S. Grimme                         |     
     |          Mulliken Center for Theoretical Chemistry        |     
     |                    University of Bonn                     |     
      -----------------------------------------------------------      

   * xtb version 6.5.1 (579679a) compiled by 'ehlert@majestix' on 2022-07-11

   xtb is free software: you can redistribute it and/or modify it under
   the terms of the GNU Lesser General Public License as published by
   the Free Software Foundation, either version 3 of the License, or
   (at your option) any later version.
   
   xtb is distributed in the hope that it will be useful,
   but WITHOUT ANY WARRANTY; without even the implied warranty of
   MERCHANTABILITY or FITNESS FOR A PARTICULAR PURPOSE.  See the
   GNU Lesser General Public License for more details.
   
   Cite this work as:
   * C. Bannwarth, E. Caldeweyher, S. Ehlert, A. Hansen, P. Pracht,
     J. Seibert, S. Spicher, S. Grimme, WIREs Comput. Mol. Sci., 2020, 11,
     e01493. DOI: 10.1002/wcms.1493
   
   for GFN2-xTB:
   * C. Bannwarth, S. Ehlert and S. Grimme., J. Chem. Theory Comput., 2019,
     15, 1652-1671. DOI: 10.1021/acs.jctc.8b01176
   for GFN1-xTB:
   * S. Grimme, C. Bannwarth, P. Shushkov, J. Chem. Theory Comput., 2017,
     13, 1989-2009. DOI: 10.1021/acs.jctc.7b00118
   for GFN0-xTB:
   * P. Pracht, E. Caldeweyher, S. Ehlert, S. Grimme, ChemRxiv, 2019, preprint.
     DOI: 10.26434/chemrxiv.8326202.v1
   for GFN-FF:
   * S. Spicher and S. Grimme, Angew. Chem. Int. Ed., 2020, 59, 15665-15673.
     DOI: 10.1002/anie.202004239
   
   for ALPB and GBSA implicit solvation:
   * S. Ehlert, M. Stahn, S. Spicher, S. Grimme, J. Chem. Theory Comput.,
     2021, 17, 4250-4261. DOI: 10.1021/acs.jctc.1c00471
   
   for DFT-D4:
   * E. Caldeweyher, C. Bannwarth and S. Grimme, J. Chem. Phys., 2017,
     147, 034112. DOI: 10.1063/1.4993215
   * E. Caldeweyher, S. Ehlert, A. Hansen, H. Neugebauer, S. Spicher,
     C. Bannwarth and S. Grimme, J. Chem. Phys., 2019, 150, 154122.
     DOI: 10.1063/1.5090222
   * E. Caldeweyher, J.-M. Mewes, S. Ehlert and S. Grimme, Phys. Chem. Chem. Phys.
     2020, 22, 8499-8512. DOI: 10.1039/D0CP00502A
   
   for sTDA-xTB:
   * S. Grimme and C. Bannwarth, J. Chem. Phys., 2016, 145, 054103.
     DOI: 10.1063/1.4959605
   
   in the mass-spec context:
   * V. Asgeirsson, C. Bauer and S. Grimme, Chem. Sci., 2017, 8, 4879.
     DOI: 10.1039/c7sc00601b
   * J. Koopman and S. Grimme, ACS Omega 2019, 4, 12, 15120-15133.
     DOI: 10.1021/acsomega.9b02011
   
   for metadynamics refer to:
   * S. Grimme, J. Chem. Theory Comput., 2019, 155, 2847-2862
     DOI: 10.1021/acs.jctc.9b00143
   
   for SPH calculations refer to:
   * S. Spicher and S. Grimme, J. Chem. Theory Comput., 2021, 17, 1701-1714
     DOI: 10.1021/acs.jctc.0c01306
   
   with help from (in alphabetical order)
   P. Atkinson, C. Bannwarth, F. Bohle, G. Brandenburg, E. Caldeweyher
   M. Checinski, S. Dohm, S. Ehlert, S. Ehrlich, I. Gerasimov, C. Hölzer
   A. Katbashev, J. Koopman, C. Lavigne, S. Lehtola, F. März, M. Müller,
   F. Musil, H. Neugebauer, J. Pisarek, C. Plett, P. Pracht, F. Pultar,
   J. Seibert, P. Shushkov, S. Spicher, M. Stahn, M. Steiner, T. Strunk,
   J. Stückrath, T. Rose, and J. Unsleber
   
 * started run on 2023/12/07 at 10:03:24.925     

           -------------------------------------------------
          |                Calculation Setup                |
           -------------------------------------------------

          program call               : otool_xtb /tmp/31_XTB.xyz --grad -c 0 -u 0 -P 1 --namespace /tmp/31 --input /tmp/31_XTB.input.tmp --acc 1.000000
          calculation namespace      : /tmp/31
          coordinate file            : /tmp/31_XTB.xyz
          omp threads                :                     1

   ID    Z sym.   atoms
    1    6 C      1, 2, 4, 7, 9, 12, 14, 16, 18
    2    8 O      3, 5, 6, 8, 10, 11, 13, 15, 17, 19, 21-23
    3   15 P      20
    4    1 H      24-40

           -------------------------------------------------
          |                 G F N 2 - x T B                 |
           -------------------------------------------------

        Reference                      10.1021/acs.jctc.8b01176
      * Hamiltonian:
        H0-scaling (s, p, d)           1.850000    2.230000    2.230000
        zeta-weighting                 0.500000
      * Dispersion:
        s8                             2.700000
        a1                             0.520000
        a2                             5.000000
        s9                             5.000000
      * Repulsion:
        kExp                           1.500000    1.000000
        rExp                           1.000000
      * Coulomb:
        alpha                          2.000000
        third order                    shell-resolved
        anisotropic                    true
        a3                             3.000000
        a5                             4.000000
        cn-shift                       1.200000
        cn-exp                         4.000000
        max-rad                        5.000000

q/qsh data taken from xtbrestart
CAMM data taken from xtbrestart

          ...................................................
          :                      SETUP                      :
          :.................................................:
          :  # basis functions                 115          :
          :  # atomic orbitals                 114          :
          :  # shells                           64          :
          :  # electrons                       136          :
          :  max. iterations                   250          :
          :  Hamiltonian                  GFN2-xTB          :
          :  restarted?                       true          :
          :  GBSA solvation                  false          :
          :  PC potential                    false          :
          :  electronic temp.          300.0000000     K    :
          :  accuracy                    1.0000000          :
          :  -> integral cutoff          0.2500000E+02      :
          :  -> integral neglect         0.1000000E-07      :
          :  -> SCF convergence          0.1000000E-05 Eh   :
          :  -> wf. convergence          0.1000000E-03 e    :
          :  Broyden damping             0.4000000          :
          ...................................................

 iter      E             dE          RMSdq      gap      omega  full diag
   1    -84.0587268 -0.840587E+02  0.188E-01    3.25       0.0  T
   2    -84.0588899 -0.163127E-03  0.101E-01    3.23       1.0  T
   3    -84.0588933 -0.337343E-05  0.424E-02    3.25       1.0  T
   4    -84.0589013 -0.802256E-05  0.108E-02    3.23       1.5  T
   5    -84.0589033 -0.192534E-05  0.462E-03    3.23       3.4  T
   6    -84.0589033 -0.403949E-07  0.136E-03    3.23      11.6  T
   7    -84.0589033 -0.592884E-08  0.399E-04    3.23      39.7  T
   8    -84.0589033 -0.196511E-08  0.164E-04    3.23      96.7  T

   *** convergence criteria satisfied after 8 iterations ***

         #    Occupation            Energy/Eh            Energy/eV
      -------------------------------------------------------------
         1        2.0000           -0.7798167             -21.2199
       ...           ...                  ...                  ...
        62        2.0000           -0.4408277             -11.9955
        63        2.0000           -0.4389172             -11.9435
        64        2.0000           -0.4346219             -11.8267
        65        2.0000           -0.4308779             -11.7248
        66        2.0000           -0.4231434             -11.5143
        67        2.0000           -0.4199260             -11.4268
        68        2.0000           -0.4057616             -11.0413 (HOMO)
        69                         -0.2870650              -7.8114 (LUMO)
        70                         -0.2688677              -7.3163
        71                         -0.0519959              -1.4149
        72                         -0.0397244              -1.0810
        73                         -0.0264626              -0.7201
       ...                                ...                  ...
       114                          1.2372464              33.6672
      -------------------------------------------------------------
                  HL-Gap            0.1186967 Eh            3.2299 eV
             Fermi-level           -0.3464133 Eh           -9.4264 eV

 SCC (total)                   0 d,  0 h,  0 min,  0.059 sec
 SCC setup                      ...        0 min,  0.000 sec (  0.477%)
 Dispersion                     ...        0 min,  0.000 sec (  0.664%)
 classical contributions        ...        0 min,  0.000 sec (  0.161%)
 integral evaluation            ...        0 min,  0.010 sec ( 16.764%)
 iterations                     ...        0 min,  0.018 sec ( 30.958%)
 molecular gradient             ...        0 min,  0.030 sec ( 50.481%)
 printout                       ...        0 min,  0.000 sec (  0.462%)

         :::::::::::::::::::::::::::::::::::::::::::::::::::::
         ::                     SUMMARY                     ::
         :::::::::::::::::::::::::::::::::::::::::::::::::::::
         :: total energy             -83.481784868620 Eh    ::
         :: gradient norm              0.007038150126 Eh/a0 ::
         :: HOMO-LUMO gap              3.229900747894 eV    ::
         ::.................................................::
         :: SCC energy               -84.058903302939 Eh    ::
         :: -> isotropic ES            0.314110292719 Eh    ::
         :: -> anisotropic ES         -0.019428892386 Eh    ::
         :: -> anisotropic XC         -0.013693752752 Eh    ::
         :: -> dispersion             -0.046429750567 Eh    ::
         :: repulsion energy           0.576078100984 Eh    ::
         :: add. restraining           0.000000000000 Eh    ::
         :: total charge              -0.000000000000 e     ::
         :::::::::::::::::::::::::::::::::::::::::::::::::::::


Property printout bound to 'properties.out'

           -------------------------------------------------
          | TOTAL ENERGY              -83.481784868620 Eh   |
          | GRADIENT NORM               0.007038150126 Eh/α |
          | HOMO-LUMO GAP               3.229900747894 eV   |
           -------------------------------------------------

------------------------------------------------------------------------
 * finished run on 2023/12/07 at 10:03:25.000     
------------------------------------------------------------------------
 total:
 * wall-time:     0 d,  0 h,  0 min,  0.075 sec
 *  cpu-time:     0 d,  0 h,  0 min,  0.072 sec
 * ratio c/w:     0.954 speedup
 SCF:
 * wall-time:     0 d,  0 h,  0 min,  0.059 sec
 *  cpu-time:     0 d,  0 h,  0 min,  0.060 sec
 * ratio c/w:     1.013 speedup


-------------------------   --------------------
FINAL SINGLE POINT ENERGY       -83.481784868620
-------------------------   --------------------

------------------------------------------------------------------------------
                         ORCA GEOMETRY RELAXATION STEP
------------------------------------------------------------------------------

Reading the OPT-File                    .... done
Getting information on internals        .... done
Copying old internal coords+grads       .... done
Making the new internal coordinates     .... (new redundants).... done
Validating the new internal coordinates .... (new redundants).... done
Calculating the B-matrix                .... done
Calculating the G,G- and P matrices     .... done
Transforming gradient to internals      .... done
Projecting the internal gradient        .... done
Number of atoms                         ....  40
Number of internal coordinates          .... 198
Current Energy                          ....   -83.481784869 Eh
Current gradient norm                   ....     0.007038150 Eh/bohr
Maximum allowed component of the step   ....  0.300
Current trust radius                    ....  0.300
Updating the Hessian (BFGS)             .... done
Forming the augmented Hessian           .... done
Diagonalizing the augmented Hessian     .... done
Last element of RFO vector              ....  0.973393327
Lowest eigenvalues of augmented Hessian:
 -0.001060393  0.008597327  0.008995459  0.009440583  0.009668366
Length of the computed step             ....  0.235403950
The final length of the internal step   ....  0.235403950
Converting the step to cartesian space:
 Initial RMS(Int)=    0.0167294302
Transforming coordinates:
 Iter   0:  RMS(Cart)=    0.1178564435 RMS(Int)=    0.4417667831
 Iter   1:  RMS(Cart)=    0.0047608032 RMS(Int)=    0.0017409759
 Iter   2:  RMS(Cart)=    0.0004004560 RMS(Int)=    0.0001033751
 Iter   3:  RMS(Cart)=    0.0000379444 RMS(Int)=    0.0000155110
 Iter   4:  RMS(Cart)=    0.0000038910 RMS(Int)=    0.0000013995
 Iter   5:  RMS(Cart)=    0.0000003863 RMS(Int)=    0.0000001653
 Iter   6:  RMS(Cart)=    0.0000000428 RMS(Int)=    0.0000000182
done
Storing new coordinates                 .... done

                                .--------------------.
          ----------------------|Geometry convergence|-------------------------
          Item                value                   Tolerance       Converged
          ---------------------------------------------------------------------
          Energy change      -0.0057103015            0.0000050000      NO
[...]


-----------
IR SPECTRUM
-----------

 Mode   freq       eps      Int      T**2         TX        TY        TZ
       cm**-1   L/(mol*cm) km/mol    a.u.
----------------------------------------------------------------------------
  6:     22.38   0.000111    0.56  0.001544  ( 0.007375 -0.029337 -0.025086)
  7:     33.68   0.000670    3.39  0.006209  (-0.068685 -0.033795  0.018678)
  8:     42.90   0.000088    0.44  0.000639  ( 0.020099  0.007341  0.013451)
  9:     54.34   0.000358    1.81  0.002059  ( 0.041720 -0.011196  0.013882)
 10:     75.21   0.001617    8.17  0.006710  (-0.048988 -0.064849 -0.010245)
 11:     75.70   0.004275   21.60  0.017622  ( 0.100573  0.079578  0.034276)
 12:     88.43   0.003443   17.40  0.012149  ( 0.018919  0.080261  0.073136)
 13:     93.27   0.005148   26.02  0.017226  ( 0.097664  0.060681  0.063288)
 14:    118.79   0.000796    4.02  0.002090  (-0.016769 -0.038578 -0.017903)
 15:    128.10   0.005669   28.65  0.013809  (-0.049767 -0.087296 -0.060923)
 16:    142.51   0.001082    5.47  0.002370  (-0.010948 -0.010179 -0.046332)
 17:    148.65   0.002813   14.22  0.005906  ( 0.003200  0.014153  0.075465)
 18:    160.29   0.001297    6.56  0.002526  ( 0.041326 -0.007416  0.027623)
 19:    176.24   0.001950    9.86  0.003454  (-0.034830  0.009683  0.046332)
 20:    180.24   0.000376    1.90  0.000651  ( 0.003226  0.018188  0.017589)
 21:    182.99   0.001648    8.33  0.002810  ( 0.008082  0.035692  0.038356)
 22:    195.42   0.001260    6.37  0.002012  ( 0.038734  0.016879 -0.015063)
 23:    205.98   0.004395   22.21  0.006658  (-0.065703 -0.038685 -0.029069)
 24:    247.35   0.000672    3.39  0.000847  ( 0.000184 -0.028389 -0.006429)
 25:    263.77   0.000653    3.30  0.000773  ( 0.003774 -0.008789 -0.026106)
 26:    273.55   0.003138   15.86  0.003579  ( 0.032021  0.050530  0.000881)
 27:    284.04   0.003043   15.38  0.003344  ( 0.014458  0.034299  0.044251)
 28:    295.92   0.005134   25.95  0.005415  (-0.022862  0.010513 -0.069148)
 29:    312.43   0.007403   37.41  0.007394  (-0.079691 -0.018498 -0.026480)
 30:    318.83   0.024316  122.88  0.023800  ( 0.109581  0.063487 -0.088097)
 31:    326.44   0.009719   49.12  0.009291  (-0.038779  0.010116 -0.087663)
 32:    343.17   0.002187   11.05  0.001989  ( 0.015513  0.037328 -0.018837)
 33:    347.34   0.001767    8.93  0.001588  ( 0.026209  0.022409  0.019963)
 34:    358.44   0.007184   36.31  0.006255  ( 0.048379 -0.058671  0.021725)
 35:    371.11   0.008043   40.65  0.006763  ( 0.041148  0.069409 -0.015896)
 36:    378.97   0.003144   15.89  0.002589  ( 0.024112 -0.040060 -0.020075)
 37:    391.06   0.007860   39.72  0.006272  (-0.063160  0.044553 -0.017271)
 38:    398.80   0.003827   19.34  0.002995  ( 0.026328  0.044712  0.017395)
 39:    407.26   0.037971  191.89  0.029095  (-0.116671  0.076262  0.098323)
 40:    419.56   0.014834   74.96  0.011033  (-0.000954 -0.079551  0.068584)
 41:    423.99   0.007148   36.12  0.005261  (-0.032187  0.064314  0.009402)
 42:    430.98   0.001882    9.51  0.001363  ( 0.007141  0.006097  0.035702)
 43:    453.71   0.015031   75.96  0.010338  (-0.026005 -0.046849 -0.086414)
 44:    457.96   0.014637   73.97  0.009974  ( 0.002669  0.001089  0.099829)
 45:    473.94   0.009422   47.61  0.006204  ( 0.064799  0.044231  0.006948)
 46:    490.94   0.053324  269.48  0.033895  ( 0.113491 -0.016037 -0.144076)
 47:    496.06   0.018584   93.92  0.011691  ( 0.083844  0.004996 -0.068089)
 48:    499.07   0.002336   11.81  0.001461  (-0.026309 -0.024230 -0.013474)
 49:    528.80   0.008247   41.68  0.004867  ( 0.013952 -0.061057  0.030732)
 50:    546.23   0.030926  156.29  0.017668  ( 0.120088  0.056919 -0.002691)
 51:    587.23   0.005937   30.00  0.003155  (-0.038331 -0.024121  0.033227)
 52:    623.11   0.013024   65.82  0.006523  (-0.027738 -0.045329  0.060815)
 53:    646.10   0.022228  112.33  0.010736  ( 0.017140  0.001939  0.102169)
 54:    662.67   0.019537   98.73  0.009200  (-0.089367  0.003354  0.034675)
 55:    701.68   0.025250  127.60  0.011230  (-0.026351 -0.079468  0.064962)
 56:    710.45   0.002227   11.25  0.000978  (-0.029882 -0.006820  0.006226)
 57:    764.24   0.012031   60.80  0.004912  (-0.002904 -0.052372  0.046488)
 58:    786.42   0.003735   18.87  0.001482  ( 0.027690  0.026656  0.002169)
 59:    812.31   0.022367  113.03  0.008593  ( 0.081933  0.024673 -0.035650)
 60:    850.27   0.037307  188.54  0.013692  ( 0.047247 -0.068258 -0.082468)
 61:    859.83   0.024209  122.34  0.008786  ( 0.018687 -0.060393 -0.069208)
 62:    880.00   0.009008   45.53  0.003195  (-0.005049  0.053175 -0.018478)
 63:    902.10   0.040763  206.00  0.014101  (-0.081300 -0.081245 -0.029842)
 64:    927.07   0.107652  544.03  0.036237  ( 0.188144 -0.006550  0.028212)
 65:    963.74   0.006010   30.37  0.001946  ( 0.028013  0.002743  0.033969)
 66:    977.32   0.003598   18.18  0.001149  (-0.029612  0.013327  0.009712)
 67:    986.29   0.010982   55.50  0.003475  (-0.058180 -0.009349 -0.001574)
 68:    998.42   0.009096   45.97  0.002843  ( 0.046465 -0.024718  0.008550)
 69:   1006.57   0.009631   48.67  0.002986  ( 0.052556  0.014340 -0.004264)
 70:   1025.81   0.004983   25.18  0.001516  ( 0.014814 -0.034920  0.008779)
 71:   1038.04   0.006483   32.76  0.001949  ( 0.032053  0.030020  0.004527)
 72:   1063.84   0.011590   58.57  0.003400  ( 0.019784 -0.048787 -0.025063)
 73:   1078.30   0.037613  190.08  0.010885  (-0.057240 -0.071347  0.050183)
 74:   1088.27   0.010597   53.56  0.003039  (-0.023339  0.049931 -0.001034)
 75:   1110.81   0.026866  135.77  0.007548  (-0.019816 -0.068826  0.049173)
 76:   1119.46   0.045898  231.95  0.012795  ( 0.103511  0.006157  0.045189)
 77:   1130.10   0.016593   83.86  0.004582  (-0.055627 -0.000133 -0.038570)
 78:   1137.16   0.001484    7.50  0.000407  ( 0.006373  0.002087  0.019032)
 79:   1144.70   0.034286  173.27  0.009347  (-0.095413 -0.000657 -0.015590)
 80:   1172.63   0.051230  258.90  0.013634  ( 0.028942 -0.110024 -0.026279)
 81:   1183.85   0.034494  174.32  0.009093  ( 0.043461  0.026825  0.080524)
 82:   1203.75   0.016828   85.04  0.004363  (-0.039740 -0.049795  0.017432)
 83:   1220.62   0.024381  123.21  0.006233  (-0.042877 -0.020418 -0.063070)
 84:   1233.47   0.002458   12.42  0.000622  ( 0.013663 -0.019695 -0.006873)
 85:   1235.84   0.005544   28.02  0.001400  (-0.002704  0.009822 -0.036002)
 86:   1240.14   0.002827   14.29  0.000711  (-0.011015  0.009674 -0.022284)
 87:   1248.19   0.088157  445.51  0.022040  ( 0.087090 -0.090134  0.079571)
 88:   1278.27   0.026675  134.80  0.006512  ( 0.027379 -0.029623  0.069892)
 89:   1290.18   0.005061   25.58  0.001224  ( 0.006221 -0.028279  0.019642)
 90:   1299.31   0.005820   29.41  0.001398  ( 0.029320  0.008493  0.021589)
 91:   1310.36   0.012839   64.88  0.003058  (-0.021597 -0.041898 -0.028911)
 92:   1321.06   0.046400  234.49  0.010961  ( 0.019230 -0.101998  0.013687)
 93:   1325.61   0.015552   78.59  0.003661  ( 0.014909 -0.046222  0.036089)
 94:   1328.13   0.005830   29.46  0.001370  (-0.029053  0.020092 -0.011047)
 95:   1345.48   0.001804    9.12  0.000418  (-0.002595  0.007655 -0.018788)
 96:   1349.87   0.020011  101.13  0.004626  (-0.008716  0.066513  0.011235)
 97:   1356.84   0.004777   24.14  0.001099  (-0.020745 -0.007389  0.024772)
 98:   1419.78   0.003106   15.70  0.000683  (-0.017611 -0.008096 -0.017523)
 99:   1429.88   0.005723   28.92  0.001249  (-0.016153 -0.013564  0.028357)
100:   1441.26   0.001534    7.75  0.000332  (-0.003015  0.004678  0.017356)
101:   1773.18   0.057999  293.10  0.010207  (-0.013680 -0.035806  0.093478)
102:   1808.86   0.091326  461.53  0.015756  ( 0.103304 -0.070975 -0.006812)
103:   2914.01   0.003632   18.35  0.000389  ( 0.010493  0.000978 -0.016670)
104:   2931.94   0.008156   41.22  0.000868  (-0.005850  0.012693  0.025938)
105:   2963.75   0.003931   19.87  0.000414  (-0.000029 -0.017408 -0.010530)
106:   2993.21   0.002459   12.43  0.000256  ( 0.001889  0.009905  0.012436)
107:   3003.57   0.004815   24.33  0.000500  (-0.000275  0.002608 -0.022211)
108:   3005.20   0.006739   34.06  0.000700  (-0.019939  0.007369  0.015746)
109:   3041.54   0.000847    4.28  0.000087  ( 0.008908 -0.002051 -0.001832)
110:   3059.78   0.004739   23.95  0.000483  (-0.004694 -0.010393 -0.018795)
111:   3270.87   0.021533  108.82  0.002054  ( 0.003530 -0.008964 -0.044290)
112:   3395.15   0.022710  114.76  0.002087  (-0.043939 -0.009382  0.008287)
113:   3411.43   0.022926  115.86  0.002097  ( 0.011310 -0.041073  0.016801)
114:   3418.18   0.011055   55.87  0.001009  (-0.003250 -0.026467 -0.017270)
115:   3472.15   0.005187   26.21  0.000466  ( 0.009701  0.017154  0.008823)
116:   3497.41   0.005783   29.23  0.000516  ( 0.020831 -0.008076 -0.004105)
117:   3526.88   0.009401   47.51  0.000832  (-0.006109  0.008315 -0.026932)
118:   3580.40   0.007440   37.60  0.000648  (-0.018450  0.004329  0.017010)
119:   3637.71   0.013673   69.10  0.001173  (-0.010500 -0.003803  0.032376)

* The epsilon (eps) is given for a Dirac delta lineshape.
** The dipole moment derivative (T) already includes vibrational overlap.

The first frequency considered to be a vibration is 6
The total number of vibrations considered is 114


--------------------------
THERMOCHEMISTRY AT 298.15K
--------------------------

Temperature         ... 298.15 K
Pressure            ... 1.00 atm
Total Mass          ... 364.20 AMU

Throughout the following assumptions are being made:
  (1) The electronic state is orbitally nondegenerate
  (2) There are no thermally accessible electronically excited states
  (3) Hindered rotations indicated by low frequency modes are not
      treated as such but are treated as vibrations and this may
      cause some error
  (4) All equations used are the standard statistical mechanics
      equations for an ideal gas
  (5) All vibrations are strictly harmonic

freq.      22.38  E(vib)   ...       0.56 
freq.      33.68  E(vib)   ...       0.55 
freq.      42.90  E(vib)   ...       0.53 
freq.      54.34  E(vib)   ...       0.52 
freq.      75.21  E(vib)   ...       0.49 
freq.      75.70  E(vib)   ...       0.49 
freq.      88.43  E(vib)   ...       0.48 
freq.      93.27  E(vib)   ...       0.47 
freq.     118.79  E(vib)   ...       0.44 
freq.     128.10  E(vib)   ...       0.43 
freq.     142.51  E(vib)   ...       0.41 
freq.     148.65  E(vib)   ...       0.41 
freq.     160.29  E(vib)   ...       0.39 
freq.     176.24  E(vib)   ...       0.38 
freq.     180.24  E(vib)   ...       0.37 
freq.     182.99  E(vib)   ...       0.37 
freq.     195.42  E(vib)   ...       0.36 
freq.     205.98  E(vib)   ...       0.35 
freq.     247.35  E(vib)   ...       0.31 
freq.     263.77  E(vib)   ...       0.29 
freq.     273.55  E(vib)   ...       0.29 
freq.     284.04  E(vib)   ...       0.28 
freq.     295.92  E(vib)   ...       0.27 
freq.     312.43  E(vib)   ...       0.25 
freq.     318.83  E(vib)   ...       0.25 
freq.     326.44  E(vib)   ...       0.24 
freq.     343.17  E(vib)   ...       0.23 
freq.     347.34  E(vib)   ...       0.23 
freq.     358.44  E(vib)   ...       0.22 
freq.     371.11  E(vib)   ...       0.21 
freq.     378.97  E(vib)   ...       0.21 
freq.     391.06  E(vib)   ...       0.20 
freq.     398.80  E(vib)   ...       0.19 
freq.     407.26  E(vib)   ...       0.19 
freq.     419.56  E(vib)   ...       0.18 
freq.     423.99  E(vib)   ...       0.18 
freq.     430.98  E(vib)   ...       0.18 
freq.     453.71  E(vib)   ...       0.16 
freq.     457.96  E(vib)   ...       0.16 
freq.     473.94  E(vib)   ...       0.15 
freq.     490.94  E(vib)   ...       0.14 
freq.     496.06  E(vib)   ...       0.14 
freq.     499.07  E(vib)   ...       0.14 
freq.     528.80  E(vib)   ...       0.13 
freq.     546.23  E(vib)   ...       0.12 
freq.     587.23  E(vib)   ...       0.10 
freq.     623.11  E(vib)   ...       0.09 
freq.     646.10  E(vib)   ...       0.09 
freq.     662.67  E(vib)   ...       0.08 
freq.     701.68  E(vib)   ...       0.07 
freq.     710.45  E(vib)   ...       0.07 
freq.     764.24  E(vib)   ...       0.06 
freq.     786.42  E(vib)   ...       0.05 
freq.     812.31  E(vib)   ...       0.05 
freq.     850.27  E(vib)   ...       0.04 
freq.     859.83  E(vib)   ...       0.04 
freq.     880.00  E(vib)   ...       0.04 
freq.     902.10  E(vib)   ...       0.03 
freq.     927.07  E(vib)   ...       0.03 
freq.     963.74  E(vib)   ...       0.03 
freq.     977.32  E(vib)   ...       0.03 
freq.     986.29  E(vib)   ...       0.02 
freq.     998.42  E(vib)   ...       0.02 
freq.    1006.57  E(vib)   ...       0.02 
freq.    1025.81  E(vib)   ...       0.02 
freq.    1038.04  E(vib)   ...       0.02 
freq.    1063.84  E(vib)   ...       0.02 
freq.    1078.30  E(vib)   ...       0.02 
freq.    1088.27  E(vib)   ...       0.02 
freq.    1110.81  E(vib)   ...       0.01 
freq.    1119.46  E(vib)   ...       0.01 
freq.    1130.10  E(vib)   ...       0.01 
freq.    1137.16  E(vib)   ...       0.01 
freq.    1144.70  E(vib)   ...       0.01 
freq.    1172.63  E(vib)   ...       0.01 
freq.    1183.85  E(vib)   ...       0.01 
freq.    1203.75  E(vib)   ...       0.01 
freq.    1220.62  E(vib)   ...       0.01 
freq.    1233.47  E(vib)   ...       0.01 
freq.    1235.84  E(vib)   ...       0.01 
freq.    1240.14  E(vib)   ...       0.01 
freq.    1248.19  E(vib)   ...       0.01 
freq.    1278.27  E(vib)   ...       0.01 
freq.    1290.18  E(vib)   ...       0.01 
freq.    1299.31  E(vib)   ...       0.01 
freq.    1310.36  E(vib)   ...       0.01 
freq.    1321.06  E(vib)   ...       0.01 
freq.    1325.61  E(vib)   ...       0.01 
freq.    1328.13  E(vib)   ...       0.01 
freq.    1345.48  E(vib)   ...       0.01 
freq.    1349.87  E(vib)   ...       0.01 
freq.    1356.84  E(vib)   ...       0.01 
freq.    1419.78  E(vib)   ...       0.00 
freq.    1429.88  E(vib)   ...       0.00 
freq.    1441.26  E(vib)   ...       0.00 
freq.    1773.18  E(vib)   ...       0.00 
freq.    1808.86  E(vib)   ...       0.00 
freq.    2914.01  E(vib)   ...       0.00 
freq.    2931.94  E(vib)   ...       0.00 
freq.    2963.75  E(vib)   ...       0.00 
freq.    2993.21  E(vib)   ...       0.00 
freq.    3003.57  E(vib)   ...       0.00 
freq.    3005.20  E(vib)   ...       0.00 
freq.    3041.54  E(vib)   ...       0.00 
freq.    3059.78  E(vib)   ...       0.00 
freq.    3270.87  E(vib)   ...       0.00 
freq.    3395.15  E(vib)   ...       0.00 
freq.    3411.43  E(vib)   ...       0.00 
freq.    3418.18  E(vib)   ...       0.00 
freq.    3472.15  E(vib)   ...       0.00 
freq.    3497.41  E(vib)   ...       0.00 
freq.    3526.88  E(vib)   ...       0.00 
freq.    3580.40  E(vib)   ...       0.00 
freq.    3637.71  E(vib)   ...       0.00 

------------
INNER ENERGY
------------

The inner energy is: U= E(el) + E(ZPE) + E(vib) + E(rot) + E(trans)
    E(el)   - is the total energy from the electronic structure calculation
              = E(kin-el) + E(nuc-el) + E(el-el) + E(nuc-nuc)
    E(ZPE)  - the the zero temperature vibrational energy from the frequency calculation
    E(vib)  - the the finite temperature correction to E(ZPE) due to population
              of excited vibrational states
    E(rot)  - is the rotational thermal energy
    E(trans)- is the translational thermal energy

Summary of contributions to the inner energy U:
Electronic energy                ...    -83.48205977 Eh
Zero point energy                ...      0.28519677 Eh     178.96 kcal/mol
Thermal vibrational correction   ...      0.02360968 Eh      14.82 kcal/mol
Thermal rotational correction    ...      0.00141627 Eh       0.89 kcal/mol
Thermal translational correction ...      0.00141627 Eh       0.89 kcal/mol
-----------------------------------------------------------------------
Total thermal energy                    -83.17042078 Eh


Summary of corrections to the electronic energy:
(perhaps to be used in another calculation)
Total thermal correction                  0.02644222 Eh      16.59 kcal/mol
Non-thermal (ZPE) correction              0.28519677 Eh     178.96 kcal/mol
-----------------------------------------------------------------------
Total correction                          0.31163899 Eh     195.56 kcal/mol


--------
ENTHALPY
--------

The enthalpy is H = U + kB*T
                kB is Boltzmann's constant
Total free energy                 ...    -83.17042078 Eh 
Thermal Enthalpy correction       ...      0.00094421 Eh       0.59 kcal/mol
-----------------------------------------------------------------------
Total Enthalpy                    ...    -83.16947657 Eh


Note: Only C1 symmetry has been detected, increase convergence thresholds 
      if your molecule has a higher symmetry. Symmetry factor of 1.0 is   
      used for the rotational entropy correction. 
 

Note: Rotational entropy computed according to Herzberg 
Infrared and Raman Spectra, Chapter V,1, Van Nostrand Reinhold, 1945 
Point Group:  C1, Symmetry Number:   1  
Rotational constants in cm-1:     0.014928     0.005421     0.005150 

Vibrational entropy computed according to the QRRHO of S. Grimme
Chem.Eur.J. 2012 18 9955


-------
ENTROPY
-------

The entropy contributions are T*S = T*(S(el)+S(vib)+S(rot)+S(trans))
     S(el)   - electronic entropy
     S(vib)  - vibrational entropy
     S(rot)  - rotational entropy
     S(trans)- translational entropy
The entropies will be listed as multiplied by the temperature to get
units of energy

Electronic entropy                ...      0.00000000 Eh      0.00 kcal/mol
Vibrational entropy               ...      0.04163379 Eh     26.13 kcal/mol
Rotational entropy                ...      0.01644619 Eh     10.32 kcal/mol
Translational entropy             ...      0.02070180 Eh     12.99 kcal/mol
-----------------------------------------------------------------------
Final entropy term                ...      0.07878179 Eh     49.44 kcal/mol

In case the symmetry of your molecule has not been determined correctly
or in case you have a reason to use a different symmetry number we print 
out the resulting rotational entropy values for sn=1,12 :
 --------------------------------------------------------
|  sn= 1 | S(rot)=       0.01644619 Eh     10.32 kcal/mol|
|  sn= 2 | S(rot)=       0.01579173 Eh      9.91 kcal/mol|
|  sn= 3 | S(rot)=       0.01540890 Eh      9.67 kcal/mol|
|  sn= 4 | S(rot)=       0.01513728 Eh      9.50 kcal/mol|
|  sn= 5 | S(rot)=       0.01492659 Eh      9.37 kcal/mol|
|  sn= 6 | S(rot)=       0.01475444 Eh      9.26 kcal/mol|
|  sn= 7 | S(rot)=       0.01460890 Eh      9.17 kcal/mol|
|  sn= 8 | S(rot)=       0.01448282 Eh      9.09 kcal/mol|
|  sn= 9 | S(rot)=       0.01437161 Eh      9.02 kcal/mol|
|  sn=10 | S(rot)=       0.01427213 Eh      8.96 kcal/mol|
|  sn=11 | S(rot)=       0.01418214 Eh      8.90 kcal/mol|
|  sn=12 | S(rot)=       0.01409999 Eh      8.85 kcal/mol|
 --------------------------------------------------------


-------------------
GIBBS FREE ENERGY
-------------------

The Gibbs free energy is G = H - T*S

Total enthalpy                    ...    -83.16947657 Eh 
Total entropy correction          ...     -0.07878179 Eh    -49.44 kcal/mol
-----------------------------------------------------------------------
Final Gibbs free energy         ...    -83.24825836 Eh

For completeness - the Gibbs free energy minus the electronic energy
G-E(el)                           ...      0.23380141 Eh    146.71 kcal/mol



Timings for individual modules:

Sum of individual times         ...      598.932 sec (=   9.982 min)
Geometry relaxation             ...        1.245 sec (=   0.021 min)   0.2 %
Numerical frequency calculation ...      596.531 sec (=   9.942 min)  99.6 %
XTB module                      ...        1.156 sec (=   0.019 min)   0.2 %
                             ****ORCA TERMINATED NORMALLY****
TOTAL RUN TIME: 0 days 0 hours 9 minutes 59 seconds 889 msec
