
                                 *****************
                                 * O   R   C   A *
                                 *****************

                                            #,                                       
                                            ###                                      
                                            ####                                     
                                            #####                                    
                                            ######                                   
                                           ########,                                 
                                     ,,################,,,,,                         
                               ,,#################################,,                 
                          ,,##########################################,,             
                       ,#########################################, ''#####,          
                    ,#############################################,,   '####,        
                  ,##################################################,,,,####,       
                ,###########''''           ''''###############################       
              ,#####''   ,,,,##########,,,,          '''####'''          '####       
            ,##' ,,,,###########################,,,                        '##       
           ' ,,###''''                  '''############,,,                           
         ,,##''                                '''############,,,,        ,,,,,,###''
      ,#''                                            '''#######################'''  
     '                                                          ''''####''''         
             ,#######,   #######,   ,#######,      ##                                
            ,#'     '#,  ##    ##  ,#'     '#,    #''#        ######   ,####,        
            ##       ##  ##   ,#'  ##            #'  '#       #        #'  '#        
            ##       ##  #######   ##           ,######,      #####,   #    #        
            '#,     ,#'  ##    ##  '#,     ,#' ,#      #,         ##   #,  ,#        
             '#######'   ##     ##  '#######'  #'      '#     #####' # '####'        



                  #######################################################
                  #                        -***-                        #
                  #          Department of theory and spectroscopy      #
                  #    Directorship and core code : Frank Neese         #
                  #        Max Planck Institute fuer Kohlenforschung    #
                  #                Kaiser Wilhelm Platz 1               #
                  #                 D-45470 Muelheim/Ruhr               #
                  #                      Germany                        #
                  #                                                     #
                  #                  All rights reserved                #
                  #                        -***-                        #
                  #######################################################


                         Program Version 5.0.3 -  RELEASE  -


 With contributions from (in alphabetic order):
   Daniel Aravena         : Magnetic Suceptibility
   Michael Atanasov       : Ab Initio Ligand Field Theory (pilot matlab implementation)
   Alexander A. Auer      : GIAO ZORA, VPT2 properties, NMR spectrum
   Ute Becker             : Parallelization
   Giovanni Bistoni       : ED, misc. LED, open-shell LED, HFLD
   Martin Brehm           : Molecular dynamics
   Dmytro Bykov           : SCF Hessian
   Vijay G. Chilkuri      : MRCI spin determinant printing, contributions to CSF-ICE
   Dipayan Datta          : RHF DLPNO-CCSD density
   Achintya Kumar Dutta   : EOM-CC, STEOM-CC
   Dmitry Ganyushin       : Spin-Orbit,Spin-Spin,Magnetic field MRCI
   Miquel Garcia          : C-PCM and meta-GGA Hessian, CC/C-PCM, Gaussian charge scheme
   Yang Guo               : DLPNO-NEVPT2, F12-NEVPT2, CIM, IAO-localization
   Andreas Hansen         : Spin unrestricted coupled pair/coupled cluster methods
   Benjamin Helmich-Paris : MC-RPA, TRAH-SCF, COSX integrals
   Lee Huntington         : MR-EOM, pCC
   Robert Izsak           : Overlap fitted RIJCOSX, COSX-SCS-MP3, EOM
   Marcus Kettner         : VPT2
   Christian Kollmar      : KDIIS, OOCD, Brueckner-CCSD(T), CCSD density, CASPT2, CASPT2-K
   Simone Kossmann        : Meta GGA functionals, TD-DFT gradient, OOMP2, MP2 Hessian
   Martin Krupicka        : Initial AUTO-CI
   Lucas Lang             : DCDCAS
   Marvin Lechner         : AUTO-CI (C++ implementation), FIC-MRCC
   Dagmar Lenk            : GEPOL surface, SMD
   Dimitrios Liakos       : Extrapolation schemes; Compound Job, initial MDCI parallelization
   Dimitrios Manganas     : Further ROCIS development; embedding schemes
   Dimitrios Pantazis     : SARC Basis sets
   Anastasios Papadopoulos: AUTO-CI, single reference methods and gradients
   Taras Petrenko         : DFT Hessian,TD-DFT gradient, ASA, ECA, R-Raman, ABS, FL, XAS/XES, NRVS
   Peter Pinski           : DLPNO-MP2, DLPNO-MP2 Gradient
   Christoph Reimann      : Effective Core Potentials
   Marius Retegan         : Local ZFS, SOC
   Christoph Riplinger    : Optimizer, TS searches, QM/MM, DLPNO-CCSD(T), (RO)-DLPNO pert. Triples
   Tobias Risthaus        : Range-separated hybrids, TD-DFT gradient, RPA, STAB
   Michael Roemelt        : Original ROCIS implementation
   Masaaki Saitow         : Open-shell DLPNO-CCSD energy and density
   Barbara Sandhoefer     : DKH picture change effects
   Avijit Sen             : IP-ROCIS
   Kantharuban Sivalingam : CASSCF convergence, NEVPT2, FIC-MRCI
   Bernardo de Souza      : ESD, SOC TD-DFT
   Georgi Stoychev        : AutoAux, RI-MP2 NMR, DLPNO-MP2 response
   Willem Van den Heuvel  : Paramagnetic NMR
   Boris Wezisla          : Elementary symmetry handling
   Frank Wennmohs         : Technical directorship


 We gratefully acknowledge several colleagues who have allowed us to
 interface, adapt or use parts of their codes:
   Stefan Grimme, W. Hujo, H. Kruse, P. Pracht,  : VdW corrections, initial TS optimization,
                  C. Bannwarth, S. Ehlert          DFT functionals, gCP, sTDA/sTD-DF
   Ed Valeev, F. Pavosevic, A. Kumar             : LibInt (2-el integral package), F12 methods
   Garnet Chan, S. Sharma, J. Yang, R. Olivares  : DMRG
   Ulf Ekstrom                                   : XCFun DFT Library
   Mihaly Kallay                                 : mrcc  (arbitrary order and MRCC methods)
   Jiri Pittner, Ondrej Demel                    : Mk-CCSD
   Frank Weinhold                                : gennbo (NPA and NBO analysis)
   Christopher J. Cramer and Donald G. Truhlar   : smd solvation model
   Lars Goerigk                                  : TD-DFT with DH, B97 family of functionals
   V. Asgeirsson, H. Jonsson                     : NEB implementation
   FAccTs GmbH                                   : IRC, NEB, NEB-TS, DLPNO-Multilevel, CI-OPT
                                                   MM, QMMM, 2- and 3-layer-ONIOM, Crystal-QMMM,
                                                   LR-CPCM, SF, NACMEs, symmetry and pop. for TD-DFT,
                                                   nearIR, NL-DFT gradient (VV10), updates on ESD,
                                                   ML-optimized integration grids
   S Lehtola, MJT Oliveira, MAL Marques          : LibXC Library
   Liviu Ungur et al                             : ANISO software


 Your calculation uses the libint2 library for the computation of 2-el integrals
 For citations please refer to: http://libint.valeyev.net

 Your ORCA version has been built with support for libXC version: 5.1.0
 For citations please refer to: https://tddft.org/programs/libxc/

 This ORCA versions uses:
   CBLAS   interface :  Fast vector & matrix operations
   LAPACKE interface :  Fast linear algebra routines
   SCALAPACK package :  Parallel linear algebra routines
   Shared memory     :  Shared parallel matrices
   BLAS/LAPACK       :  OpenBLAS 0.3.15  USE64BITINT DYNAMIC_ARCH NO_AFFINITY Haswell SINGLE_THREADED
        Core in use  :  Haswell
   Copyright (c) 2011-2014, The OpenBLAS Project


Your calculation utilizes the semiempirical GFN2-xTB method
Please cite in your paper:
C. Bannwarth, Ehlert S., S. Grimme,  J. Chem. Theory Comput., 15, (2019), 1652.
   

================================================================================

================================================================================
                                        WARNINGS
                       Please study these warnings very carefully!
================================================================================


WARNING: Geometry Optimization
  ===> : Switching off AutoStart
         For restart on a previous wavefunction, please use MOREAD

WARNING: Found dipole moment calculation with XTB calculation
  ===> : Switching off dipole moment calculation


WARNING: TRAH-SCF for XTB is not implemented!
  ===> : Turning TRAH off!

================================================================================
                                       INPUT FILE
================================================================================
NAME = /tmp/32.inp
|  1> ! XTB2 opt numfreq
|  2> * XYZ 0 1
|  3> O -2.7241 0.6009 -2.8695
|  4> C -3.1979 -0.3220 -2.2056
|  5> C -2.6183 -0.7918 -0.8786
|  6> O -2.9841 -2.1789 -0.7626
|  7> C -3.2897 0.0240 0.2342
|  8> O -4.7100 -0.0174 0.1188
|  9> P -5.5425 0.5102 1.3792
| 10> O -5.1736 1.8547 1.8983
| 11> O -5.4401 -0.6626 2.4514
| 12> O -7.0565 0.3935 0.8954
| 13> C -1.0668 -0.6135 -0.8921
| 14> O -0.5161 -1.4887 -1.8761
| 15> O -0.6607 0.7008 -1.2263
| 16> C -0.4886 -1.0571 0.4865
| 17> O -0.4867 -2.2388 0.8442
| 18> C 0.1306 0.0021 1.3702
| 19> C 1.6538 -0.1186 1.4268
| 20> O 2.1353 0.8041 2.4125
| 21> C 2.3652 0.1324 0.0806
| 22> O 1.9742 -0.8408 -0.9033
| 23> C 3.8920 0.0862 0.2299
| 24> O 4.4577 0.2631 -1.0679
| 25> P 5.9959 0.6913 -1.1596
| 26> O 6.5979 0.6841 -2.5208
| 27> O 6.0592 2.1342 -0.4826
| 28> O 6.7785 -0.2255 -0.1180
| 29> H -4.1354 -0.8136 -2.5199
| 30> H -2.2631 -2.6958 -1.1797
| 31> H -3.0191 -0.3841 1.2138
| 32> H -2.9812 1.0742 0.1925
| 33> H -5.9083 -0.4356 3.2740
| 34> H -7.3085 1.1452 0.3304
| 35> H 0.4416 -1.5239 -1.6585
| 36> H -1.1312 0.9225 -2.0603
| 37> H -0.1769 1.0084 1.0706
| 38> H -0.2899 -0.1253 2.3762
| 39> H 1.9113 -1.1261 1.7757
| 40> H 1.8079 1.6941 2.1928
| 41> H 2.0851 1.1161 -0.3156
| 42> H 2.6587 -0.7702 -1.6041
| 43> H 4.2463 0.8688 0.9070
| 44> H 4.2124 -0.8918 0.6026
| 45> H 6.0297 2.8313 -1.1638
| 46> H 7.7361 -0.2202 -0.2985
| 47> *
| 48> 
| 49>                          ****END OF INPUT****
================================================================================

                       *****************************
                       * Geometry Optimization Run *
                       *****************************

Geometry optimization settings:
Update method            Update   .... BFGS
Choice of coordinates    CoordSys .... Z-matrix Internals
Initial Hessian          InHess   .... Almoef's Model

Convergence Tolerances:
Energy Change            TolE     ....  5.0000e-06 Eh
Max. Gradient            TolMAXG  ....  3.0000e-04 Eh/bohr
RMS Gradient             TolRMSG  ....  1.0000e-04 Eh/bohr
Max. Displacement        TolMAXD  ....  4.0000e-03 bohr
RMS Displacement         TolRMSD  ....  2.0000e-03 bohr
Strict Convergence                ....  False
------------------------------------------------------------------------------
                        ORCA OPTIMIZATION COORDINATE SETUP
------------------------------------------------------------------------------

The optimization will be done in new redundant internal coordinates
Making redundant internal coordinates   ...  (new redundants) done
Evaluating the initial hessian          ...  (Almloef) done
Evaluating the coordinates              ...  done
Calculating the B-matrix                .... done
Calculating the G-matrix                .... done
Diagonalizing the G-matrix              .... done
Small eigenvalue found = 1.490e-03
Small eigenvalue found = 2.649e-03
Small eigenvalue found = 4.975e-03
Small eigenvalue found = 8.018e-03
Small eigenvalue found = 1.204e-02
Small eigenvalue found = 1.957e-02
Small eigenvalue found = 2.793e-02
The first mode is                       ....   90
The number of degrees of freedom        ....  126

    -----------------------------------------------------------------
                    Redundant Internal Coordinates


    -----------------------------------------------------------------
         Definition                    Initial Value    Approx d2E/dq
    -----------------------------------------------------------------
      1. B(C   1,O   0)                  1.2317         1.001133   
      2. B(C   2,C   1)                  1.5224         0.384209   
      3. B(O   3,C   2)                  1.4392         0.467059   
      4. B(C   4,C   2)                  1.5345         0.367476   
      5. B(O   5,C   4)                  1.4256         0.491029   
      6. B(P   6,O   5)                  1.6000         0.869590   
      7. B(O   7,P   6)                  1.4877         1.313728   
      8. B(O   8,P   6)                  1.5923         0.894423   
      9. B(O   9,P   6)                  1.5937         0.889980   
     10. B(C  10,C   2)                  1.5618         0.332423   
     11. B(O  11,C  10)                  1.4274         0.487741   
     12. B(O  12,C  10)                  1.4156         0.509324   
     13. B(C  13,C  10)                  1.5594         0.335367   
     14. B(O  14,C  13)                  1.2347         0.990198   
     15. B(C  15,C  13)                  1.5120         0.399066   
     16. B(C  16,C  15)                  1.5290         0.374918   
     17. B(O  17,C  16)                  1.4335         0.477013   
     18. B(C  18,C  16)                  1.5432         0.355943   
     19. B(O  19,C  18)                  1.4381         0.469003   
     20. B(C  20,C  18)                  1.5348         0.367075   
     21. B(O  21,C  20)                  1.4267         0.488939   
     22. B(P  22,O  21)                  1.5993         0.871793   
     23. B(O  23,P  22)                  1.4884         1.310345   
     24. B(O  24,P  22)                  1.5951         0.885461   
     25. B(O  25,P  22)                  1.5931         0.891995   
     26. B(H  26,C   1)                  1.1042         0.341738   
     27. B(H  27,O   3)                  0.9803         0.482581   
     28. B(H  28,C   4)                  1.0952         0.353332   
     29. B(H  29,C   4)                  1.0954         0.353068   
     30. B(H  30,O   8)                  0.9734         0.495070   
     31. B(H  31,O   9)                  0.9735         0.494724   
     32. B(H  32,O  11)                  0.9827         0.478285   
     33. B(H  33,O  12)                  0.9829         0.478017   
     34. B(H  34,C  15)                  1.0941         0.354776   
     35. B(H  35,C  15)                  1.0978         0.349974   
     36. B(H  36,C  16)                  1.0969         0.351143   
     37. B(H  37,O  17)                  0.9734         0.494932   
     38. B(H  38,C  18)                  1.0969         0.351142   
     39. B(H  39,O  19)                  0.9822         0.479299   
     40. B(H  40,C  20)                  1.0938         0.355074   
     41. B(H  41,C  20)                  1.0946         0.354128   
     42. B(H  42,O  24)                  0.9751         0.491869   
     43. B(H  43,O  25)                  0.9745         0.493025   
     44. A(O   0,C   1,C   2)          123.6856         0.431276   
     45. A(C   2,C   1,H  26)          115.7185         0.323030   
     46. A(O   0,C   1,H  26)          120.4481         0.377285   
     47. A(O   3,C   2,C  10)          111.2984         0.367740   
     48. A(C   4,C   2,C  10)          112.3484         0.355205   
     49. A(C   1,C   2,C   4)          107.5468         0.364073   
     50. A(O   3,C   2,C   4)          110.0438         0.374137   
     51. A(C   1,C   2,C  10)          109.6002         0.357902   
     52. A(C   1,C   2,O   3)          105.7188         0.377026   
     53. A(C   2,O   3,H  27)          106.6763         0.348244   
     54. A(O   5,C   4,H  29)          107.7797         0.336174   
     55. A(O   5,C   4,H  28)          107.9241         0.336216   
     56. A(C   2,C   4,H  28)          110.0262         0.322439   
     57. A(H  28,C   4,H  29)          108.7679         0.289079   
     58. A(C   2,C   4,H  29)          111.0318         0.322400   
     59. A(C   2,C   4,O   5)          111.2094         0.377386   
     60. A(C   4,O   5,P   6)          116.4258         0.466666   
     61. A(O   8,P   6,O   9)          102.2142         0.561483   
     62. A(O   7,P   6,O   9)          114.0585         0.604437   
     63. A(O   5,P   6,O   9)          103.3564         0.558481   
     64. A(O   7,P   6,O   8)          114.5027         0.605019   
     65. A(O   5,P   6,O   7)          116.3502         0.601741   
     66. A(O   5,P   6,O   8)          104.7202         0.559011   
     67. A(P   6,O   8,H  30)          111.4912         0.417201   
     68. A(P   6,O   9,H  31)          111.4410         0.416779   
     69. A(O  12,C  10,C  13)          111.4972         0.373828   
     70. A(O  11,C  10,C  13)          106.9760         0.371050   
     71. A(C   2,C  10,C  13)          109.1616         0.349753   
     72. A(O  11,C  10,O  12)          107.2075         0.396476   
     73. A(C   2,C  10,O  12)          113.1424         0.373260   
     74. A(C   2,C  10,O  11)          108.6161         0.370487   
     75. A(C  10,O  11,H  32)          104.1993         0.350270   
     76. A(C  10,O  12,H  33)          105.8077         0.352810   
     77. A(O  14,C  13,C  15)          120.0342         0.433371   
     78. A(C  10,C  13,C  15)          117.9863         0.360763   
     79. A(C  10,C  13,O  14)          121.9363         0.420079   
     80. A(C  16,C  15,H  34)          111.2685         0.323717   
     81. A(C  13,C  15,H  35)          107.3032         0.326324   
     82. A(C  13,C  15,H  34)          111.6650         0.327057   
     83. A(C  13,C  15,C  16)          111.9806         0.367708   
     84. A(H  34,C  15,H  35)          104.4796         0.288866   
     85. A(C  16,C  15,H  35)          109.7860         0.322995   
     86. A(O  17,C  16,H  36)          107.0772         0.334255   
     87. A(C  15,C  16,H  36)          108.5511         0.323171   
     88. A(O  17,C  16,C  18)          109.8964         0.373441   
     89. A(C  15,C  16,C  18)          114.4635         0.360586   
     90. A(C  15,C  16,O  17)          108.0148         0.376805   
     91. A(C  18,C  16,H  36)          108.5824         0.320435   
     92. A(C  16,O  17,H  37)          108.6838         0.350979   
     93. A(O  19,C  18,C  20)          108.4612         0.374335   
     94. A(C  16,C  18,H  38)          110.0756         0.320434   
     95. A(C  16,C  18,C  20)          111.6446         0.359290   
     96. A(C  16,C  18,O  19)          111.1885         0.372353   
     97. A(C  20,C  18,H  38)          108.4317         0.322053   
     98. A(O  19,C  18,H  38)          106.8793         0.333317   
     99. A(C  18,O  19,H  39)          104.4802         0.348088   
    100. A(C  18,C  20,H  41)          110.5620         0.322500   
    101. A(H  40,C  20,H  41)          109.4929         0.289438   
    102. A(O  21,C  20,H  41)          107.7253         0.336103   
    103. A(O  21,C  20,H  40)          110.2390         0.336252   
    104. A(C  18,C  20,H  40)          111.1558         0.322641   
    105. A(C  18,C  20,O  21)          107.5909         0.377036   
    106. A(C  20,O  21,P  22)          117.8201         0.466518   
    107. A(O  24,P  22,O  25)          102.9196         0.560648   
    108. A(O  23,P  22,O  25)          113.3581         0.604400   
    109. A(O  21,P  22,O  25)          106.3143         0.558991   
    110. A(O  23,P  22,O  24)          112.1160         0.603543   
    111. A(O  21,P  22,O  24)          104.8344         0.558209   
    112. A(O  21,P  22,O  23)          116.1133         0.601735   
    113. A(P  22,O  24,H  42)          110.4251         0.415973   
    114. A(P  22,O  25,H  43)          111.0083         0.416692   
    115. D(C   4,C   2,C   1,O   0)     89.5402         0.011001   
    116. D(O   3,C   2,C   1,H  26)     31.4955         0.011001   
    117. D(C   4,C   2,C   1,H  26)    -86.0479         0.011001   
    118. D(O   3,C   2,C   1,O   0)   -152.9165         0.011001   
    119. D(C  10,C   2,C   1,H  26)    151.5460         0.011001   
    120. D(C  10,C   2,C   1,O   0)    -32.8659         0.011001   
    121. D(H  27,O   3,C   2,C   4)   -154.5122         0.017192   
    122. D(H  27,O   3,C   2,C   1)     89.6343         0.017192   
    123. D(H  27,O   3,C   2,C  10)    -29.2965         0.017192   
    124. D(H  28,C   4,C   2,C  10)    -68.0086         0.010804   
    125. D(H  28,C   4,C   2,O   3)     56.6046         0.010804   
    126. D(H  29,C   4,C   2,O   3)    177.0706         0.010804   
    127. D(O   5,C   4,C   2,O   3)    -62.9205         0.010804   
    128. D(O   5,C   4,C   2,C   1)     51.7763         0.010804   
    129. D(H  29,C   4,C   2,C  10)     52.4574         0.010804   
    130. D(H  29,C   4,C   2,C   1)    -68.2326         0.010804   
    131. D(O   5,C   4,C   2,C  10)    172.4662         0.010804   
    132. D(H  28,C   4,C   2,C   1)    171.3015         0.010804   
    133. D(P   6,O   5,C   4,H  29)    -71.1497         0.019041   
    134. D(P   6,O   5,C   4,H  28)     46.1621         0.019041   
    135. D(P   6,O   5,C   4,C   2)    166.9319         0.019041   
    136. D(O   8,P   6,O   5,C   4)    -75.9497         0.013089   
    137. D(O   9,P   6,O   5,C   4)    177.3595         0.013089   
    138. D(O   7,P   6,O   5,C   4)     51.5431         0.013089   
    139. D(H  30,O   8,P   6,O   9)    -73.3320         0.013812   
    140. D(H  30,O   8,P   6,O   7)     50.5204         0.013812   
    141. D(H  30,O   8,P   6,O   5)    179.1353         0.013812   
    142. D(H  31,O   9,P   6,O   8)    171.1045         0.013681   
    143. D(H  31,O   9,P   6,O   7)     46.9551         0.013681   
    144. D(H  31,O   9,P   6,O   5)    -80.3168         0.013681   
    145. D(O  11,C  10,C   2,C   1)    -65.3829         0.008986   
    146. D(C  13,C  10,C   2,O   3)    -65.1097         0.008986   
    147. D(C  13,C  10,C   2,C   1)    178.3080         0.008986   
    148. D(O  12,C  10,C   2,C   4)    -65.9707         0.008986   
    149. D(O  12,C  10,C   2,O   3)    170.1109         0.008986   
    150. D(O  12,C  10,C   2,C   1)     53.5286         0.008986   
    151. D(O  11,C  10,C   2,C   4)    175.1178         0.008986   
    152. D(C  13,C  10,C   2,C   4)     58.8087         0.008986   
    153. D(O  11,C  10,C   2,O   3)     51.1994         0.008986   
    154. D(H  32,O  11,C  10,C  13)    -46.4439         0.018780   
    155. D(H  32,O  11,C  10,O  12)     73.2685         0.018780   
    156. D(H  32,O  11,C  10,C   2)   -164.1519         0.018780   
    157. D(H  33,O  12,C  10,O  11)     68.1185         0.020534   
    158. D(H  33,O  12,C  10,C  13)   -175.1070         0.020534   
    159. D(H  33,O  12,C  10,C   2)    -51.6038         0.020534   
    160. D(C  15,C  13,C  10,O  12)     12.6009         0.008571   
    161. D(C  15,C  13,C  10,O  11)    129.5160         0.008571   
    162. D(C  15,C  13,C  10,C   2)   -113.1340         0.008571   
    163. D(O  14,C  13,C  10,O  12)   -165.0048         0.008571   
    164. D(O  14,C  13,C  10,O  11)    -48.0897         0.008571   
    165. D(O  14,C  13,C  10,C   2)     69.2603         0.008571   
    166. D(H  35,C  15,C  13,O  14)    -50.5804         0.011821   
    167. D(H  35,C  15,C  13,C  10)    131.7666         0.011821   
    168. D(H  34,C  15,C  13,O  14)   -164.5057         0.011821   
    169. D(H  34,C  15,C  13,C  10)     17.8414         0.011821   
    170. D(C  16,C  15,C  13,O  14)     69.9561         0.011821   
    171. D(C  16,C  15,C  13,C  10)   -107.6968         0.011821   
    172. D(C  18,C  16,C  15,H  34)    -61.1611         0.011219   
    173. D(C  18,C  16,C  15,C  13)     64.5944         0.011219   
    174. D(O  17,C  16,C  15,H  35)    -53.5633         0.011219   
    175. D(O  17,C  16,C  15,H  34)     61.5985         0.011219   
    176. D(C  18,C  16,C  15,H  35)   -176.3229         0.011219   
    177. D(O  17,C  16,C  15,C  13)   -172.6460         0.011219   
    178. D(H  36,C  16,C  15,H  35)     62.2129         0.011219   
    179. D(H  36,C  16,C  15,H  34)    177.3747         0.011219   
    180. D(H  36,C  16,C  15,C  13)    -56.8697         0.011219   
    181. D(H  37,O  17,C  16,H  36)   -171.8959         0.017945   
    182. D(H  37,O  17,C  16,C  18)     70.3477         0.017945   
    183. D(H  37,O  17,C  16,C  15)    -55.1595         0.017945   
    184. D(H  38,C  18,C  16,H  36)    177.2330         0.010181   
    185. D(H  38,C  18,C  16,O  17)    -65.9491         0.010181   
    186. D(H  38,C  18,C  16,C  15)     55.7861         0.010181   
    187. D(C  20,C  18,C  16,H  36)    -62.2902         0.010181   
    188. D(C  20,C  18,C  16,O  17)     54.5277         0.010181   
    189. D(C  20,C  18,C  16,C  15)    176.2628         0.010181   
    190. D(O  19,C  18,C  16,H  36)     58.9893         0.010181   
    191. D(O  19,C  18,C  16,O  17)    175.8072         0.010181   
    192. D(O  19,C  18,C  16,C  15)    -62.4577         0.010181   
    193. D(H  39,O  19,C  18,H  38)     76.4657         0.017337   
    194. D(H  39,O  19,C  18,C  20)    -40.2543         0.017337   
    195. D(H  39,O  19,C  18,C  16)   -163.3791         0.017337   
    196. D(H  41,C  20,C  18,H  38)   -178.7060         0.010782   
    197. D(H  41,C  20,C  18,O  19)    -62.9894         0.010782   
    198. D(H  41,C  20,C  18,C  16)     59.8599         0.010782   
    199. D(H  40,C  20,C  18,H  38)     59.4697         0.010782   
    200. D(H  40,C  20,C  18,O  19)    175.1863         0.010782   
    201. D(H  40,C  20,C  18,C  16)    -61.9644         0.010782   
    202. D(O  21,C  20,C  18,H  38)    -61.3157         0.010782   
    203. D(O  21,C  20,C  18,O  19)     54.4009         0.010782   
    204. D(O  21,C  20,C  18,C  16)    177.2502         0.010782   
    205. D(P  22,O  21,C  20,H  41)    -78.7139         0.018875   
    206. D(P  22,O  21,C  20,H  40)     40.7069         0.018875   
    207. D(P  22,O  21,C  20,C  18)    162.0671         0.018875   
    208. D(O  25,P  22,O  21,C  20)     44.7884         0.013153   
    209. D(O  24,P  22,O  21,C  20)    -63.7849         0.013153   
    210. D(O  23,P  22,O  21,C  20)    171.9125         0.013153   
    211. D(H  42,O  24,P  22,O  25)    151.8012         0.013548   
    212. D(H  42,O  24,P  22,O  23)     29.6402         0.013548   
    213. D(H  42,O  24,P  22,O  21)    -97.1665         0.013548   
    214. D(H  43,O  25,P  22,O  24)    -87.1364         0.013740   
    215. D(H  43,O  25,P  22,O  23)     34.1831         0.013740   
    216. D(H  43,O  25,P  22,O  21)    162.9357         0.013740   
    -----------------------------------------------------------------

Number of atoms                         .... 44
Number of degrees of freedom            .... 216

         *************************************************************
         *                GEOMETRY OPTIMIZATION CYCLE   1            *
         *************************************************************
---------------------------------
CARTESIAN COORDINATES (ANGSTROEM)
---------------------------------
  O    -2.724100    0.600900   -2.869500
  C    -3.197900   -0.322000   -2.205600
  C    -2.618300   -0.791800   -0.878600
  O    -2.984100   -2.178900   -0.762600
  C    -3.289700    0.024000    0.234200
  O    -4.710000   -0.017400    0.118800
  P    -5.542500    0.510200    1.379200
  O    -5.173600    1.854700    1.898300
  O    -5.440100   -0.662600    2.451400
  O    -7.056500    0.393500    0.895400
  C    -1.066800   -0.613500   -0.892100
  O    -0.516100   -1.488700   -1.876100
  O    -0.660700    0.700800   -1.226300
  C    -0.488600   -1.057100    0.486500
  O    -0.486700   -2.238800    0.844200
  C     0.130600    0.002100    1.370200
  C     1.653800   -0.118600    1.426800
  O     2.135300    0.804100    2.412500
  C     2.365200    0.132400    0.080600
  O     1.974200   -0.840800   -0.903300
  C     3.892000    0.086200    0.229900
  O     4.457700    0.263100   -1.067900
  P     5.995900    0.691300   -1.159600
  O     6.597900    0.684100   -2.520800
  O     6.059200    2.134200   -0.482600
  O     6.778500   -0.225500   -0.118000
  H    -4.135400   -0.813600   -2.519900
  H    -2.263100   -2.695800   -1.179700
  H    -3.019100   -0.384100    1.213800
  H    -2.981200    1.074200    0.192500
  H    -5.908300   -0.435600    3.274000
  H    -7.308500    1.145200    0.330400
  H     0.441600   -1.523900   -1.658500
  H    -1.131200    0.922500   -2.060300
  H    -0.176900    1.008400    1.070600
  H    -0.289900   -0.125300    2.376200
  H     1.911300   -1.126100    1.775700
  H     1.807900    1.694100    2.192800
  H     2.085100    1.116100   -0.315600
  H     2.658700   -0.770200   -1.604100
  H     4.246300    0.868800    0.907000
  H     4.212400   -0.891800    0.602600
  H     6.029700    2.831300   -1.163800
  H     7.736100   -0.220200   -0.298500

----------------------------
CARTESIAN COORDINATES (A.U.)
----------------------------
  NO LB    ZA    FRAG    MASS        X           Y           Z
   0 O   8.0000    0    15.999   -5.147803    1.135536   -5.422569
   1 C   6.0000    0    12.011   -6.043155   -0.608492   -4.167980
   2 C   6.0000    0    12.011   -4.947870   -1.496285   -1.660313
   3 O   8.0000    0    15.999   -5.639132   -4.117524   -1.441105
   4 C   6.0000    0    12.011   -6.216632    0.045353    0.442574
   5 O   8.0000    0    15.999   -8.900610   -0.032881    0.224499
   6 P  15.0000    0    30.974  -10.473807    0.964138    2.606310
   7 O   8.0000    0    15.999   -9.776687    3.504875    3.587267
   8 O   8.0000    0    15.999  -10.280299   -1.252133    4.632475
   9 O   8.0000    0    15.999  -13.334852    0.743607    1.692061
  10 C   6.0000    0    12.011   -2.015960   -1.159347   -1.685825
  11 O   8.0000    0    15.999   -0.975288   -2.813235   -3.545315
  12 O   8.0000    0    15.999   -1.248542    1.324320   -2.317371
  13 C   6.0000    0    12.011   -0.923320   -1.997629    0.919352
  14 O   8.0000    0    15.999   -0.919730   -4.230719    1.595307
  15 C   6.0000    0    12.011    0.246798    0.003968    2.589303
  16 C   6.0000    0    12.011    3.125229   -0.224122    2.696261
  17 O   8.0000    0    15.999    4.035132    1.519529    4.558964
  18 C   6.0000    0    12.011    4.469580    0.250200    0.152312
  19 O   8.0000    0    15.999    3.730697   -1.588882   -1.706990
  20 C   6.0000    0    12.011    7.354814    0.162894    0.434448
  21 O   8.0000    0    15.999    8.423832    0.497187   -2.018039
  22 P  15.0000    0    30.974   11.330609    1.306368   -2.191326
  23 O   8.0000    0    15.999   12.468224    1.292762   -4.763622
  24 O   8.0000    0    15.999   11.450229    4.033054   -0.911982
  25 O   8.0000    0    15.999   12.809509   -0.426133   -0.222988
  26 H   1.0000    0     1.008   -7.814773   -1.537481   -4.761921
  27 H   1.0000    0     1.008   -4.276639   -5.094324   -2.229310
  28 H   1.0000    0     1.008   -5.705272   -0.725844    2.293750
  29 H   1.0000    0     1.008   -5.633652    2.029944    0.363772
  30 H   1.0000    0     1.008  -11.165069   -0.823165    6.186963
  31 H   1.0000    0     1.008  -13.811063    2.164114    0.624366
  32 H   1.0000    0     1.008    0.834503   -2.879754   -3.134111
  33 H   1.0000    0     1.008   -2.137658    1.743272   -3.893403
  34 H   1.0000    0     1.008   -0.334293    1.905600    2.023141
  35 H   1.0000    0     1.008   -0.547832   -0.236783    4.490367
  36 H   1.0000    0     1.008    3.611834   -2.128021    3.355587
  37 H   1.0000    0     1.008    3.416436    3.201385    4.143791
  38 H   1.0000    0     1.008    3.940268    2.109123   -0.596398
  39 H   1.0000    0     1.008    5.024215   -1.455467   -3.031310
  40 H   1.0000    0     1.008    8.024344    1.641794    1.713982
  41 H   1.0000    0     1.008    7.960282   -1.685258    1.138749
  42 H   1.0000    0     1.008   11.394482    5.350382   -2.199263
  43 H   1.0000    0     1.008   14.619110   -0.416118   -0.564083

      -----------------------------------------------------------      
     |                   =====================                   |     
     |                           x T B                           |     
     |                   =====================                   |     
     |                         S. Grimme                         |     
     |          Mulliken Center for Theoretical Chemistry        |     
     |                    University of Bonn                     |     
      -----------------------------------------------------------      

   * xtb version 6.5.1 (579679a) compiled by 'ehlert@majestix' on 2022-07-11

   xtb is free software: you can redistribute it and/or modify it under
   the terms of the GNU Lesser General Public License as published by
   the Free Software Foundation, either version 3 of the License, or
   (at your option) any later version.
   
   xtb is distributed in the hope that it will be useful,
   but WITHOUT ANY WARRANTY; without even the implied warranty of
   MERCHANTABILITY or FITNESS FOR A PARTICULAR PURPOSE.  See the
   GNU Lesser General Public License for more details.
   
   Cite this work as:
   * C. Bannwarth, E. Caldeweyher, S. Ehlert, A. Hansen, P. Pracht,
     J. Seibert, S. Spicher, S. Grimme, WIREs Comput. Mol. Sci., 2020, 11,
     e01493. DOI: 10.1002/wcms.1493
   
   for GFN2-xTB:
   * C. Bannwarth, S. Ehlert and S. Grimme., J. Chem. Theory Comput., 2019,
     15, 1652-1671. DOI: 10.1021/acs.jctc.8b01176
   for GFN1-xTB:
   * S. Grimme, C. Bannwarth, P. Shushkov, J. Chem. Theory Comput., 2017,
     13, 1989-2009. DOI: 10.1021/acs.jctc.7b00118
   for GFN0-xTB:
   * P. Pracht, E. Caldeweyher, S. Ehlert, S. Grimme, ChemRxiv, 2019, preprint.
     DOI: 10.26434/chemrxiv.8326202.v1
   for GFN-FF:
   * S. Spicher and S. Grimme, Angew. Chem. Int. Ed., 2020, 59, 15665-15673.
     DOI: 10.1002/anie.202004239
   
   for ALPB and GBSA implicit solvation:
   * S. Ehlert, M. Stahn, S. Spicher, S. Grimme, J. Chem. Theory Comput.,
     2021, 17, 4250-4261. DOI: 10.1021/acs.jctc.1c00471
   
   for DFT-D4:
   * E. Caldeweyher, C. Bannwarth and S. Grimme, J. Chem. Phys., 2017,
     147, 034112. DOI: 10.1063/1.4993215
   * E. Caldeweyher, S. Ehlert, A. Hansen, H. Neugebauer, S. Spicher,
     C. Bannwarth and S. Grimme, J. Chem. Phys., 2019, 150, 154122.
     DOI: 10.1063/1.5090222
   * E. Caldeweyher, J.-M. Mewes, S. Ehlert and S. Grimme, Phys. Chem. Chem. Phys.
     2020, 22, 8499-8512. DOI: 10.1039/D0CP00502A
   
   for sTDA-xTB:
   * S. Grimme and C. Bannwarth, J. Chem. Phys., 2016, 145, 054103.
     DOI: 10.1063/1.4959605
   
   in the mass-spec context:
   * V. Asgeirsson, C. Bauer and S. Grimme, Chem. Sci., 2017, 8, 4879.
     DOI: 10.1039/c7sc00601b
   * J. Koopman and S. Grimme, ACS Omega 2019, 4, 12, 15120-15133.
     DOI: 10.1021/acsomega.9b02011
   
   for metadynamics refer to:
   * S. Grimme, J. Chem. Theory Comput., 2019, 155, 2847-2862
     DOI: 10.1021/acs.jctc.9b00143
   
   for SPH calculations refer to:
   * S. Spicher and S. Grimme, J. Chem. Theory Comput., 2021, 17, 1701-1714
     DOI: 10.1021/acs.jctc.0c01306
   
   with help from (in alphabetical order)
   P. Atkinson, C. Bannwarth, F. Bohle, G. Brandenburg, E. Caldeweyher
   M. Checinski, S. Dohm, S. Ehlert, S. Ehrlich, I. Gerasimov, C. Hölzer
   A. Katbashev, J. Koopman, C. Lavigne, S. Lehtola, F. März, M. Müller,
   F. Musil, H. Neugebauer, J. Pisarek, C. Plett, P. Pracht, F. Pultar,
   J. Seibert, P. Shushkov, S. Spicher, M. Stahn, M. Steiner, T. Strunk,
   J. Stückrath, T. Rose, and J. Unsleber
   
 * started run on 2023/12/07 at 00:06:14.069     

           -------------------------------------------------
          |                Calculation Setup                |
           -------------------------------------------------

          program call               : otool_xtb /tmp/32_XTB.xyz --grad -c 0 -u 0 -P 1 --namespace /tmp/32 --input /tmp/32_XTB.input.tmp --acc 1.000000
          calculation namespace      : /tmp/32
          coordinate file            : /tmp/32_XTB.xyz
          omp threads                :                     1

   ID    Z sym.   atoms
    1    8 O      1, 4, 6, 8-10, 12, 13, 15, 18, 20, 22, 24-26
    2    6 C      2, 3, 5, 11, 14, 16, 17, 19, 21
    3   15 P      7, 23
    4    1 H      27-44

           -------------------------------------------------
          |                 G F N 2 - x T B                 |
           -------------------------------------------------

        Reference                      10.1021/acs.jctc.8b01176
      * Hamiltonian:
        H0-scaling (s, p, d)           1.850000    2.230000    2.230000
        zeta-weighting                 0.500000
      * Dispersion:
        s8                             2.700000
        a1                             0.520000
        a2                             5.000000
        s9                             5.000000
      * Repulsion:
        kExp                           1.500000    1.000000
        rExp                           1.000000
      * Coulomb:
        alpha                          2.000000
        third order                    shell-resolved
        anisotropic                    true
        a3                             3.000000
        a5                             4.000000
        cn-shift                       1.200000
        cn-exp                         4.000000
        max-rad                        5.000000


          ...................................................
          :                      SETUP                      :
          :.................................................:
          :  # basis functions                 134          :
          :  # atomic orbitals                 132          :
          :  # shells                           72          :
          :  # electrons                       154          :
          :  max. iterations                   250          :
          :  Hamiltonian                  GFN2-xTB          :
          :  restarted?                      false          :
          :  GBSA solvation                  false          :
          :  PC potential                    false          :
          :  electronic temp.          300.0000000     K    :
          :  accuracy                    1.0000000          :
          :  -> integral cutoff          0.2500000E+02      :
          :  -> integral neglect         0.1000000E-07      :
          :  -> SCF convergence          0.1000000E-05 Eh   :
          :  -> wf. convergence          0.1000000E-03 e    :
          :  Broyden damping             0.4000000          :
          ...................................................

 iter      E             dE          RMSdq      gap      omega  full diag
   1    -95.1466920 -0.951467E+02  0.696E+00    3.35       0.0  T
   2    -95.2813415 -0.134649E+00  0.396E+00    2.69       1.0  T
   3    -95.2854254 -0.408390E-02  0.150E+00    2.85       1.0  T
   4    -95.3187297 -0.333043E-01  0.602E-01    2.57       1.0  T
   5    -95.3210875 -0.235776E-02  0.252E-01    2.67       1.0  T
   6    -95.3215624 -0.474977E-03  0.847E-02    2.65       1.0  T
   7    -95.3215959 -0.335043E-04  0.438E-02    2.64       1.0  T
   8    -95.3216080 -0.120156E-04  0.157E-02    2.65       1.0  T
   9    -95.3216106 -0.261321E-05  0.775E-03    2.64       1.9  T
  10    -95.3216111 -0.506472E-06  0.269E-03    2.64       5.6  T
  11    -95.3216112 -0.834918E-07  0.975E-04    2.64      15.5  T
  12    -95.3216112 -0.333273E-08  0.347E-04    2.64      43.4  T

   *** convergence criteria satisfied after 12 iterations ***

         #    Occupation            Energy/Eh            Energy/eV
      -------------------------------------------------------------
         1        2.0000           -0.7601570             -20.6849
       ...           ...                  ...                  ...
        71        2.0000           -0.4447646             -12.1027
        72        2.0000           -0.4435808             -12.0704
        73        2.0000           -0.4425951             -12.0436
        74        2.0000           -0.4420272             -12.0282
        75        2.0000           -0.4411103             -12.0032
        76        2.0000           -0.4328893             -11.7795
        77        2.0000           -0.4090922             -11.1320 (HOMO)
        78                         -0.3119320              -8.4881 (LUMO)
        79                         -0.2936827              -7.9915
        80                         -0.1064340              -2.8962
        81                         -0.0977570              -2.6601
        82                         -0.0609694              -1.6591
       ...                                ...                  ...
       132                          1.2035049              32.7490
      -------------------------------------------------------------
                  HL-Gap            0.0971602 Eh            2.6439 eV
             Fermi-level           -0.3605121 Eh           -9.8100 eV

 SCC (total)                   0 d,  0 h,  0 min,  0.086 sec
 SCC setup                      ...        0 min,  0.000 sec (  0.370%)
 Dispersion                     ...        0 min,  0.000 sec (  0.542%)
 classical contributions        ...        0 min,  0.000 sec (  0.123%)
 integral evaluation            ...        0 min,  0.011 sec ( 12.870%)
 iterations                     ...        0 min,  0.037 sec ( 43.531%)
 molecular gradient             ...        0 min,  0.036 sec ( 42.080%)
 printout                       ...        0 min,  0.000 sec (  0.457%)

         :::::::::::::::::::::::::::::::::::::::::::::::::::::
         ::                     SUMMARY                     ::
         :::::::::::::::::::::::::::::::::::::::::::::::::::::
         :: total energy             -94.734567447156 Eh    ::
         :: gradient norm              0.137557086300 Eh/a0 ::
         :: HOMO-LUMO gap              2.643863366041 eV    ::
         ::.................................................::
         :: SCC energy               -95.321611161853 Eh    ::
         :: -> isotropic ES            0.381359396453 Eh    ::
         :: -> anisotropic ES         -0.015821777622 Eh    ::
         :: -> anisotropic XC         -0.005435919886 Eh    ::
         :: -> dispersion             -0.045245960593 Eh    ::
         :: repulsion energy           0.586693297801 Eh    ::
         :: add. restraining           0.000000000000 Eh    ::
         :: total charge               0.000000000000 e     ::
         :::::::::::::::::::::::::::::::::::::::::::::::::::::


Property printout bound to 'properties.out'

           -------------------------------------------------
          | TOTAL ENERGY              -94.734567447156 Eh   |
          | GRADIENT NORM               0.137557086300 Eh/α |
          | HOMO-LUMO GAP               2.643863366041 eV   |
           -------------------------------------------------

------------------------------------------------------------------------
 * finished run on 2023/12/07 at 00:06:14.174     
------------------------------------------------------------------------
 total:
 * wall-time:     0 d,  0 h,  0 min,  0.105 sec
 *  cpu-time:     0 d,  0 h,  0 min,  0.104 sec
 * ratio c/w:     0.991 speedup
 SCF:
 * wall-time:     0 d,  0 h,  0 min,  0.086 sec
 *  cpu-time:     0 d,  0 h,  0 min,  0.088 sec
 * ratio c/w:     1.020 speedup


-------------------------   --------------------
FINAL SINGLE POINT ENERGY       -94.734567447160
-------------------------   --------------------

------------------------------------------------------------------------------
                         ORCA GEOMETRY RELAXATION STEP
------------------------------------------------------------------------------

Reading the OPT-File                    .... done
Getting information on internals        .... done
Copying old internal coords+grads       .... done
Making the new internal coordinates     .... (new redundants).... done
Validating the new internal coordinates .... (new redundants).... done
Calculating the B-matrix                .... done
Calculating the G,G- and P matrices     .... done
Transforming gradient to internals      .... done
Projecting the internal gradient        .... done
Number of atoms                         ....  44
Number of internal coordinates          .... 216
Current Energy                          ....   -94.734567447 Eh
Current gradient norm                   ....     0.137557086 Eh/bohr
Maximum allowed component of the step   ....  0.300
Current trust radius                    ....  0.300
Evaluating the initial hessian          ....  (Almloef) done
Projecting the Hessian                  .... done
Forming the augmented Hessian           .... done
Diagonalizing the augmented Hessian     .... done
Last element of RFO vector              ....  0.946796680
Lowest eigenvalues of augmented Hessian:
 -0.023176472  0.008575974  0.009114265  0.010210229  0.010311066
Length of the computed step             ....  0.339917043
Warning: the length of the step is outside the trust region - taking restricted step instead
The input lambda is                     ....    -0.023176
   iter:   1  x=   -0.030125  g=    3.676129 f(x)=     0.025544
   iter:   2  x=   -0.032442  g=    2.301655 f(x)=     0.005334
   iter:   3  x=   -0.032614  g=    2.013229 f(x)=     0.000346
   iter:   4  x=   -0.032615  g=    1.994105 f(x)=     0.000002
   iter:   5  x=   -0.032615  g=    1.994014 f(x)=     0.000000
   iter:   6  x=   -0.032615  g=    1.994014 f(x)=     0.000000
The output lambda is                    ....    -0.032615 (6 iterations)
The final length of the internal step   ....  0.300000000
Converting the step to cartesian space:
 Initial RMS(Int)=    0.0204124145
Transforming coordinates:
 Iter   0:  RMS(Cart)=    0.0904791817 RMS(Int)=    0.0202948457
 Iter   1:  RMS(Cart)=    0.0019500161 RMS(Int)=    0.0009629251
 Iter   2:  RMS(Cart)=    0.0001001484 RMS(Int)=    0.0000402336
 Iter   3:  RMS(Cart)=    0.0000061545 RMS(Int)=    0.0000038055
 Iter   4:  RMS(Cart)=    0.0000003787 RMS(Int)=    0.0000001969
 Iter   5:  RMS(Cart)=    0.0000000266 RMS(Int)=    0.0000000186
done
Storing new coordinates                 .... done

                                .--------------------.
          ----------------------|Geometry convergence|-------------------------
          Item                value                   Tolerance       Converged
          ---------------------------------------------------------------------
          RMS gradient        0.0074402492            0.0001000000      NO
          MAX gradient        0.0496924436            0.0003000000      NO
          RMS step            0.0204124145            0.0020000000      NO
          MAX step            0.0681312180            0.0040000000      NO
          ........................................................
          Max(Bonds)      0.0257      Max(Angles)    2.80
          Max(Dihed)        3.90      Max(Improp)    0.00
          ---------------------------------------------------------------------

The optimization has not yet converged - more geometry cycles are needed


    ---------------------------------------------------------------------------
                         Redundant Internal Coordinates
                            (Angstroem and degrees)

        Definition                    Value    dE/dq     Step     New-Value
    ----------------------------------------------------------------------------
     1. B(C   1,O   0)                1.2317  0.041743 -0.0214    1.2103   
     2. B(C   2,C   1)                1.5224 -0.002494  0.0032    1.5255   
     3. B(O   3,C   2)                1.4392  0.022467 -0.0238    1.4154   
     4. B(C   4,C   2)                1.5345  0.006553 -0.0087    1.5258   
     5. B(O   5,C   4)                1.4256  0.007606 -0.0077    1.4179   
     6. B(P   6,O   5)                1.6000  0.008074 -0.0047    1.5953   
     7. B(O   7,P   6)                1.4877  0.025738 -0.0101    1.4776   
     8. B(O   8,P   6)                1.5923  0.005545 -0.0032    1.5892   
     9. B(O   9,P   6)                1.5937  0.005203 -0.0030    1.5907   
    10. B(C  10,C   2)                1.5618  0.008582 -0.0124    1.5493   
    11. B(O  11,C  10)                1.4274  0.013415 -0.0136    1.4138   
    12. B(O  12,C  10)                1.4156  0.019024 -0.0186    1.3970   
    13. B(C  13,C  10)                1.5594  0.013086 -0.0188    1.5406   
    14. B(O  14,C  13)                1.2347  0.049692 -0.0257    1.2089   
    15. B(C  15,C  13)                1.5120  0.004723 -0.0058    1.5062   
    16. B(C  16,C  15)                1.5290 -0.002155  0.0028    1.5318   
    17. B(O  17,C  16)                1.4335  0.017280 -0.0179    1.4155   
    18. B(C  18,C  16)                1.5432  0.008313 -0.0113    1.5318   
    19. B(O  19,C  18)                1.4381  0.013723 -0.0145    1.4236   
    20. B(C  20,C  18)                1.5348  0.004656 -0.0062    1.5286   
    21. B(O  21,C  20)                1.4267  0.000144 -0.0001    1.4266   
    22. B(P  22,O  21)                1.5993  0.009993 -0.0058    1.5935   
    23. B(O  23,P  22)                1.4884  0.033478 -0.0132    1.4752   
    24. B(O  24,P  22)                1.5951 -0.005339  0.0031    1.5982   
    25. B(O  25,P  22)                1.5931  0.004520 -0.0026    1.5905   
    26. B(H  26,C   1)                1.1042  0.005117 -0.0072    1.0970   
    27. B(H  27,O   3)                0.9803  0.009394 -0.0096    0.9707   
    28. B(H  28,C   4)                1.0952  0.000566 -0.0008    1.0944   
    29. B(H  29,C   4)                1.0954  0.000043 -0.0001    1.0953   
    30. B(H  30,O   8)                0.9734  0.015010 -0.0151    0.9583   
    31. B(H  31,O   9)                0.9735  0.014935 -0.0150    0.9586   
    32. B(H  32,O  11)                0.9827  0.007779 -0.0081    0.9747   
    33. B(H  33,O  12)                0.9829  0.004258 -0.0044    0.9785   
    34. B(H  34,C  15)                1.0941  0.000452 -0.0006    1.0934   
    35. B(H  35,C  15)                1.0978  0.002162 -0.0030    1.0948   
    36. B(H  36,C  16)                1.0969  0.001853 -0.0026    1.0943   
    37. B(H  37,O  17)                0.9734  0.007550 -0.0076    0.9659   
    38. B(H  38,C  18)                1.0969 -0.003011  0.0042    1.1010   
    39. B(H  39,O  19)                0.9822  0.011539 -0.0119    0.9702   
    40. B(H  40,C  20)                1.0938  0.001483 -0.0020    1.0918   
    41. B(H  41,C  20)                1.0946  0.000748 -0.0010    1.0935   
    42. B(H  42,O  24)                0.9751  0.016438 -0.0166    0.9585   
    43. B(H  43,O  25)                0.9745  0.016299 -0.0164    0.9581   
    44. A(O   0,C   1,C   2)          123.69 -0.008204    1.17    124.86   
    45. A(C   2,C   1,H  26)          115.72  0.008034   -1.09    114.63   
    46. A(O   0,C   1,H  26)          120.45 -0.000038    0.18    120.63   
    47. A(O   3,C   2,C  10)          111.30  0.002817   -1.01    110.29   
    48. A(C   4,C   2,C  10)          112.35  0.003170   -1.20    111.15   
    49. A(C   1,C   2,C   4)          107.55  0.000638    0.23    107.78   
    50. A(O   3,C   2,C   4)          110.04 -0.000844   -0.33    109.72   
    51. A(C   1,C   2,C  10)          109.60 -0.004018    1.29    110.89   
    52. A(C   1,C   2,O   3)          105.72 -0.002220    1.22    106.94   
    53. A(C   2,O   3,H  27)          106.68 -0.001265    0.19    106.87   
    54. A(O   5,C   4,H  29)          107.78 -0.004387    0.65    108.43   
    55. A(O   5,C   4,H  28)          107.92 -0.005479    1.05    108.97   
    56. A(C   2,C   4,H  28)          110.03  0.001036   -0.29    109.73   
    57. A(H  28,C   4,H  29)          108.77 -0.000738    0.36    109.13   
    58. A(C   2,C   4,H  29)          111.03  0.001067   -0.44    110.59   
    59. A(C   2,C   4,O   5)          111.21  0.008067   -1.24    109.97   
    60. A(C   4,O   5,P   6)          116.43  0.006491   -0.74    115.68   
    61. A(O   8,P   6,O   9)          102.21 -0.004049    0.68    102.89   
    62. A(O   7,P   6,O   9)          114.06 -0.003750    0.69    114.75   
    63. A(O   5,P   6,O   9)          103.36  0.003162   -0.47    102.88   
    64. A(O   7,P   6,O   8)          114.50 -0.001994    0.35    114.86   
    65. A(O   5,P   6,O   7)          116.35  0.002431   -0.53    115.82   
    66. A(O   5,P   6,O   8)          104.72  0.004337   -0.73    103.99   
    67. A(P   6,O   8,H  30)          111.49  0.002960   -0.38    111.11   
    68. A(P   6,O   9,H  31)          111.44  0.001734   -0.22    111.22   
    69. A(O  12,C  10,C  13)          111.50  0.007598   -1.49    110.01   
    70. A(O  11,C  10,C  13)          106.98 -0.004871    1.34    108.32   
    71. A(C   2,C  10,C  13)          109.16 -0.003321   -0.21    108.96   
    72. A(O  11,C  10,O  12)          107.21 -0.009701    2.80    110.01   
    73. A(C   2,C  10,O  12)          113.14 -0.000947   -0.18    112.97   
    74. A(C   2,C  10,O  11)          108.62  0.011122   -2.17    106.45   
    75. A(C  10,O  11,H  32)          104.20 -0.006140    0.92    105.12   
    76. A(C  10,O  12,H  33)          105.81 -0.002373    0.35    106.16   
    77. A(O  14,C  13,C  15)          120.03 -0.011912    1.51    121.55   
    78. A(C  10,C  13,C  15)          117.99  0.003765   -0.49    117.49   
    79. A(C  10,C  13,O  14)          121.94  0.008121   -0.98    120.95   
    80. A(C  16,C  15,H  34)          111.27  0.000413   -0.23    111.04   
    81. A(C  13,C  15,H  35)          107.30 -0.002193    0.49    107.79   
    82. A(C  13,C  15,H  34)          111.66  0.003533   -0.78    110.88   
    83. A(C  13,C  15,C  16)          111.98 -0.002636   -0.02    111.96   
    84. A(H  34,C  15,H  35)          104.48 -0.005332    1.89    106.37   
    85. A(C  16,C  15,H  35)          109.79  0.006118   -1.23    108.55   
    86. A(O  17,C  16,H  36)          107.08  0.003011   -0.66    106.42   
    87. A(C  15,C  16,H  36)          108.55 -0.002230    0.55    109.10   
    88. A(O  17,C  16,C  18)          109.90  0.000427   -0.16    109.74   
    89. A(C  15,C  16,C  18)          114.46  0.006428   -1.00    113.46   
    90. A(C  15,C  16,O  17)          108.01 -0.006034    1.25    109.26   
    91. A(C  18,C  16,H  36)          108.58 -0.001745    0.03    108.61   
    92. A(C  16,O  17,H  37)          108.68  0.001780   -0.27    108.42   
    93. A(O  19,C  18,C  20)          108.46 -0.002656    0.32    108.78   
    94. A(C  16,C  18,H  38)          110.08 -0.000659    0.10    110.17   
    95. A(C  16,C  18,C  20)          111.64  0.002393   -0.77    110.87   
    96. A(C  16,C  18,O  19)          111.19  0.003383   -1.00    110.18   
    97. A(C  20,C  18,H  38)          108.43 -0.000759    0.47    108.90   
    98. A(O  19,C  18,H  38)          106.88 -0.002006    1.00    107.88   
    99. A(C  18,O  19,H  39)          104.48 -0.003640    0.55    105.03   
   100. A(C  18,C  20,H  41)          110.56  0.000422   -0.11    110.45   
   101. A(H  40,C  20,H  41)          109.49  0.000577   -0.09    109.40   
   102. A(O  21,C  20,H  41)          107.73 -0.003635    0.79    108.52   
   103. A(O  21,C  20,H  40)          110.24 -0.001782    0.22    110.46   
   104. A(C  18,C  20,H  40)          111.16 -0.000294   -0.13    111.02   
   105. A(C  18,C  20,O  21)          107.59  0.004631   -0.66    106.93   
   106. A(C  20,O  21,P  22)          117.82  0.000525   -0.06    117.76   
   107. A(O  24,P  22,O  25)          102.92  0.000558    0.05    102.97   
   108. A(O  23,P  22,O  25)          113.36 -0.008966    1.17    114.53   
   109. A(O  21,P  22,O  25)          106.31  0.011022   -1.66    104.65   
   110. A(O  23,P  22,O  24)          112.12 -0.004021    0.92    113.04   
   111. A(O  21,P  22,O  24)          104.83 -0.002130    0.05    104.89   
   112. A(O  21,P  22,O  23)          116.11  0.004070   -0.61    115.50   
   113. A(P  22,O  24,H  42)          110.43  0.002804   -0.36    110.07   
   114. A(P  22,O  25,H  43)          111.01  0.005261   -0.67    110.34   
   115. D(C   4,C   2,C   1,O   0)     89.54  0.000510    0.59     90.13   
   116. D(O   3,C   2,C   1,H  26)     31.50  0.001765   -2.98     28.51   
   117. D(C   4,C   2,C   1,H  26)    -86.05  0.003549   -3.33    -89.38   
   118. D(O   3,C   2,C   1,O   0)   -152.92 -0.001274    0.94   -151.98   
   119. D(C  10,C   2,C   1,H  26)    151.55  0.001699   -2.79    148.76   
   120. D(C  10,C   2,C   1,O   0)    -32.87 -0.001340    1.13    -31.74   
   121. D(H  27,O   3,C   2,C   4)   -154.51 -0.002711    1.77   -152.74   
   122. D(H  27,O   3,C   2,C   1)     89.63 -0.001842    0.99     90.63   
   123. D(H  27,O   3,C   2,C  10)    -29.30  0.002802   -0.75    -30.04   
   124. D(H  28,C   4,C   2,C  10)    -68.01 -0.002581    0.52    -67.49   
   125. D(H  28,C   4,C   2,O   3)     56.60  0.002759   -1.91     54.70   
   126. D(H  29,C   4,C   2,O   3)    177.07  0.003211   -1.93    175.14   
   127. D(O   5,C   4,C   2,O   3)    -62.92  0.003771   -2.23    -65.15   
   128. D(O   5,C   4,C   2,C   1)     51.78  0.001059   -0.82     50.95   
   129. D(H  29,C   4,C   2,C  10)     52.46 -0.002130    0.50     52.96   
   130. D(H  29,C   4,C   2,C   1)    -68.23  0.000498   -0.52    -68.75   
   131. D(O   5,C   4,C   2,C  10)    172.47 -0.001569    0.20    172.66   
   132. D(H  28,C   4,C   2,C   1)    171.30  0.000047   -0.50    170.80   
   133. D(P   6,O   5,C   4,H  29)    -71.15  0.002818   -0.34    -71.49   
   134. D(P   6,O   5,C   4,H  28)     46.16 -0.003267    0.98     47.15   
   135. D(P   6,O   5,C   4,C   2)    166.93 -0.000619    0.54    167.48   
   136. D(O   8,P   6,O   5,C   4)    -75.95 -0.000998   -0.37    -76.32   
   137. D(O   9,P   6,O   5,C   4)    177.36  0.000884   -0.70    176.66   
   138. D(O   7,P   6,O   5,C   4)     51.54  0.001673   -0.88     50.66   
   139. D(H  30,O   8,P   6,O   9)    -73.33  0.004597   -1.44    -74.77   
   140. D(H  30,O   8,P   6,O   7)     50.52 -0.003979    0.09     50.61   
   141. D(H  30,O   8,P   6,O   5)    179.14  0.001232   -0.93    178.20   
   142. D(H  31,O   9,P   6,O   8)    171.10 -0.003667    0.39    171.50   
   143. D(H  31,O   9,P   6,O   7)     46.96  0.003685   -0.90     46.06   
   144. D(H  31,O   9,P   6,O   5)    -80.32  0.000651   -0.32    -80.64   
   145. D(O  11,C  10,C   2,C   1)    -65.38  0.001565    0.27    -65.12   
   146. D(C  13,C  10,C   2,O   3)    -65.11 -0.000494    1.68    -63.43   
   147. D(C  13,C  10,C   2,C   1)    178.31  0.003025   -0.02    178.29   
   148. D(O  12,C  10,C   2,C   4)    -65.97 -0.003801    1.82    -64.15   
   149. D(O  12,C  10,C   2,O   3)    170.11 -0.007191    3.90    174.01   
   150. D(O  12,C  10,C   2,C   1)     53.53 -0.003672    2.21     55.74   
   151. D(O  11,C  10,C   2,C   4)    175.12  0.001436   -0.12    174.99   
   152. D(C  13,C  10,C   2,C   4)     58.81  0.002897   -0.41     58.40   
   153. D(O  11,C  10,C   2,O   3)     51.20 -0.001954    1.96     53.16   
   154. D(H  32,O  11,C  10,C  13)    -46.44  0.000621   -1.78    -48.22   
   155. D(H  32,O  11,C  10,O  12)     73.27  0.001820   -1.33     71.94   
   156. D(H  32,O  11,C  10,C   2)   -164.15  0.001363   -1.13   -165.28   
   157. D(H  33,O  12,C  10,O  11)     68.12  0.004890   -1.27     66.84   
   158. D(H  33,O  12,C  10,C  13)   -175.11 -0.002631    1.21   -173.90   
   159. D(H  33,O  12,C  10,C   2)    -51.60 -0.001868   -0.35    -51.96   
   160. D(C  15,C  13,C  10,O  12)     12.60  0.003809   -1.42     11.18   
   161. D(C  15,C  13,C  10,O  11)    129.52 -0.006656    1.95    131.47   
   162. D(C  15,C  13,C  10,C   2)   -113.13  0.002066    0.02   -113.11   
   163. D(O  14,C  13,C  10,O  12)   -165.00  0.004830   -2.48   -167.49   
   164. D(O  14,C  13,C  10,O  11)    -48.09 -0.005634    0.88    -47.21   
   165. D(O  14,C  13,C  10,C   2)     69.26  0.003087   -1.04     68.22   
   166. D(H  35,C  15,C  13,O  14)    -50.58 -0.002344   -0.14    -50.72   
   167. D(H  35,C  15,C  13,C  10)    131.77 -0.001832   -1.12    130.64   
   168. D(H  34,C  15,C  13,O  14)   -164.51  0.003451   -2.28   -166.78   
   169. D(H  34,C  15,C  13,C  10)     17.84  0.003962   -3.26     14.58   
   170. D(C  16,C  15,C  13,O  14)     69.96  0.002194   -1.35     68.60   
   171. D(C  16,C  15,C  13,C  10)   -107.70  0.002705   -2.34   -110.03   
   172. D(C  18,C  16,C  15,H  34)    -61.16 -0.001093   -0.19    -61.35   
   173. D(C  18,C  16,C  15,C  13)     64.59  0.001880   -1.41     63.18   
   174. D(O  17,C  16,C  15,H  35)    -53.56  0.001900   -1.58    -55.14   
   175. D(O  17,C  16,C  15,H  34)     61.60 -0.000700   -0.14     61.46   
   176. D(C  18,C  16,C  15,H  35)   -176.32  0.001508   -1.63   -177.95   
   177. D(O  17,C  16,C  15,C  13)   -172.65  0.002273   -1.36   -174.01   
   178. D(H  36,C  16,C  15,H  35)     62.21  0.001083   -1.40     60.81   
   179. D(H  36,C  16,C  15,H  34)    177.37 -0.001518    0.04    177.41   
   180. D(H  36,C  16,C  15,C  13)    -56.87  0.001455   -1.19    -58.06   
   181. D(H  37,O  17,C  16,H  36)   -171.90  0.001488   -0.64   -172.53   
   182. D(H  37,O  17,C  16,C  18)     70.35  0.001619   -0.22     70.13   
   183. D(H  37,O  17,C  16,C  15)    -55.16 -0.002618    0.30    -54.86   
   184. D(H  38,C  18,C  16,H  36)    177.23 -0.000384   -0.64    176.59   
   185. D(H  38,C  18,C  16,O  17)    -65.95  0.002470   -1.50    -67.45   
   186. D(H  38,C  18,C  16,C  15)     55.79 -0.000544   -0.70     55.09   
   187. D(C  20,C  18,C  16,H  36)    -62.29 -0.000212   -0.49    -62.78   
   188. D(C  20,C  18,C  16,O  17)     54.53  0.002641   -1.35     53.18   
   189. D(C  20,C  18,C  16,C  15)    176.26 -0.000373   -0.55    175.71   
   190. D(O  19,C  18,C  16,H  36)     58.99  0.000416   -1.32     57.67   
   191. D(O  19,C  18,C  16,O  17)    175.81  0.003270   -2.18    173.63   
   192. D(O  19,C  18,C  16,C  15)    -62.46  0.000256   -1.37    -63.83   
   193. D(H  39,O  19,C  18,H  38)     76.47 -0.000786    0.04     76.51   
   194. D(H  39,O  19,C  18,C  20)    -40.25  0.002507   -1.20    -41.45   
   195. D(H  39,O  19,C  18,C  16)   -163.38 -0.000893    0.21   -163.17   
   196. D(H  41,C  20,C  18,H  38)   -178.71  0.002112   -0.70   -179.40   
   197. D(H  41,C  20,C  18,O  19)    -62.99 -0.002068    0.91    -62.08   
   198. D(H  41,C  20,C  18,C  16)     59.86  0.001927   -0.64     59.22   
   199. D(H  40,C  20,C  18,H  38)     59.47  0.001289   -0.41     59.06   
   200. D(H  40,C  20,C  18,O  19)    175.19 -0.002892    1.19    176.37   
   201. D(H  40,C  20,C  18,C  16)    -61.96  0.001104   -0.36    -62.32   
   202. D(O  21,C  20,C  18,H  38)    -61.32  0.000693   -0.19    -61.50   
   203. D(O  21,C  20,C  18,O  19)     54.40 -0.003487    1.41     55.81   
   204. D(O  21,C  20,C  18,C  16)    177.25  0.000508   -0.13    177.12   
   205. D(P  22,O  21,C  20,H  41)    -78.71  0.001267   -0.27    -78.98   
   206. D(P  22,O  21,C  20,H  40)     40.71 -0.001253    0.22     40.93   
   207. D(P  22,O  21,C  20,C  18)    162.07  0.000221   -0.22    161.85   
   208. D(O  25,P  22,O  21,C  20)     44.79  0.000635    0.66     45.44   
   209. D(O  24,P  22,O  21,C  20)    -63.78 -0.003300    1.21    -62.58   
   210. D(O  23,P  22,O  21,C  20)    171.91  0.000878    0.37    172.29   
   211. D(H  42,O  24,P  22,O  25)    151.80 -0.007560    0.67    152.47   
   212. D(H  42,O  24,P  22,O  23)     29.64  0.004976   -1.25     28.39   
   213. D(H  42,O  24,P  22,O  21)    -97.17  0.003936   -1.11    -98.27   
   214. D(H  43,O  25,P  22,O  24)    -87.14  0.004227   -1.45    -88.58   
   215. D(H  43,O  25,P  22,O  23)     34.18 -0.005050    0.33     34.51   
   216. D(H  43,O  25,P  22,O  21)    162.94  0.002489   -0.94    162.00   
    ----------------------------------------------------------------------------

         *************************************************************
         *                GEOMETRY OPTIMIZATION CYCLE   2            *
         *************************************************************
---------------------------------
CARTESIAN COORDINATES (ANGSTROEM)
---------------------------------
  O    -2.812628    0.608855   -2.891440
  C    -3.232488   -0.299553   -2.210759
  C    -2.606052   -0.768207   -0.901113
  O    -2.917764   -2.141936   -0.762933
  C    -3.251471    0.022008    0.233391
  O    -4.663830   -0.043488    0.126718
  P    -5.477698    0.465215    1.400975
  O    -5.095811    1.794936    1.919859
  O    -5.338582   -0.724345    2.445524
  O    -6.991181    0.345290    0.926252
  C    -1.070122   -0.565735   -0.919647
  O    -0.565036   -1.424219   -1.922958
  O    -0.697455    0.753832   -1.187234
  C    -0.490279   -1.011882    0.436094
  O    -0.496329   -2.176017    0.762124
  C     0.108800    0.050776    1.319625
  C     1.632142   -0.077194    1.417246
  O     2.119441    0.855719    2.363774
  C     2.348028    0.122694    0.077813
  O     1.973572   -0.901829   -0.836936
  C     3.865253    0.088138    0.260820
  O     4.443297    0.212948   -1.037434
  P     5.973595    0.647463   -1.129857
  O     6.569881    0.590225   -2.477964
  O     6.025036    2.108824   -0.484953
  O     6.712397   -0.248363   -0.042959
  H    -4.131203   -0.852624   -2.510528
  H    -2.194829   -2.638041   -1.179368
  H    -2.947604   -0.399200    1.196685
  H    -2.949568    1.074012    0.190465
  H    -5.774313   -0.510841    3.271895
  H    -7.245243    1.094146    0.384502
  H     0.395430   -1.465509   -1.762314
  H    -1.171934    1.010629   -2.003535
  H    -0.180258    1.048957    0.979495
  H    -0.315774   -0.068869    2.321599
  H     1.884091   -1.069658    1.803294
  H     1.810053    1.735452    2.112337
  H     2.064137    1.090446   -0.363872
  H     2.646807   -0.874157   -1.535037
  H     4.200379    0.901416    0.907583
  H     4.176824   -0.868521    0.689226
  H     6.012911    2.773616   -1.175377
  H     7.655479   -0.265509   -0.210881

----------------------------
CARTESIAN COORDINATES (A.U.)
----------------------------
  NO LB    ZA    FRAG    MASS        X           Y           Z
   0 O   8.0000    0    15.999   -5.315097    1.150569   -5.464030
   1 C   6.0000    0    12.011   -6.108516   -0.566073   -4.177728
   2 C   6.0000    0    12.011   -4.924724   -1.451700   -1.702858
   3 O   8.0000    0    15.999   -5.513775   -4.047672   -1.441735
   4 C   6.0000    0    12.011   -6.144389    0.041589    0.441046
   5 O   8.0000    0    15.999   -8.813361   -0.082181    0.239462
   6 P  15.0000    0    30.974  -10.351349    0.879130    2.647460
   7 O   8.0000    0    15.999   -9.629686    3.391937    3.628008
   8 O   8.0000    0    15.999  -10.088457   -1.368813    4.621371
   9 O   8.0000    0    15.999  -13.211417    0.652503    1.750362
  10 C   6.0000    0    12.011   -2.022238   -1.069085   -1.737880
  11 O   8.0000    0    15.999   -1.067763   -2.691385   -3.633864
  12 O   8.0000    0    15.999   -1.317998    1.424536   -2.243547
  13 C   6.0000    0    12.011   -0.926492   -1.912180    0.824098
  14 O   8.0000    0    15.999   -0.937926   -4.112077    1.440206
  15 C   6.0000    0    12.011    0.205602    0.095954    2.493729
  16 C   6.0000    0    12.011    3.084301   -0.145876    2.678207
  17 O   8.0000    0    15.999    4.005163    1.617074    4.466885
  18 C   6.0000    0    12.011    4.437130    0.231858    0.147044
  19 O   8.0000    0    15.999    3.729511   -1.704210   -1.581579
  20 C   6.0000    0    12.011    7.304270    0.166557    0.492879
  21 O   8.0000    0    15.999    8.396615    0.402414   -1.960467
  22 P  15.0000    0    30.974   11.288458    1.223528   -2.135120
  23 O   8.0000    0    15.999   12.415275    1.115363   -4.682673
  24 O   8.0000    0    15.999   11.385668    3.985100   -0.916428
  25 O   8.0000    0    15.999   12.684591   -0.469338   -0.081180
  26 H   1.0000    0     1.008   -7.806842   -1.611226   -4.744210
  27 H   1.0000    0     1.008   -4.147626   -4.985175   -2.228683
  28 H   1.0000    0     1.008   -5.570163   -0.754378    2.261407
  29 H   1.0000    0     1.008   -5.573877    2.029589    0.359926
  30 H   1.0000    0     1.008  -10.911870   -0.965350    6.182986
  31 H   1.0000    0     1.008  -13.691526    2.067636    0.726603
  32 H   1.0000    0     1.008    0.747254   -2.769410   -3.330291
  33 H   1.0000    0     1.008   -2.214634    1.909812   -3.786132
  34 H   1.0000    0     1.008   -0.340639    1.982242    1.850978
  35 H   1.0000    0     1.008   -0.596727   -0.130144    4.387187
  36 H   1.0000    0     1.008    3.560415   -2.021361    3.407733
  37 H   1.0000    0     1.008    3.420504    3.279529    3.991739
  38 H   1.0000    0     1.008    3.900653    2.060644   -0.687619
  39 H   1.0000    0     1.008    5.001740   -1.651917   -2.900800
  40 H   1.0000    0     1.008    7.937565    1.703429    1.715082
  41 H   1.0000    0     1.008    7.893054   -1.641267    1.302449
  42 H   1.0000    0     1.008   11.362756    5.241375   -2.221141
  43 H   1.0000    0     1.008   14.466759   -0.501740   -0.398506

      -----------------------------------------------------------      
     |                   =====================                   |     
     |                           x T B                           |     
     |                   =====================                   |     
     |                         S. Grimme                         |     
     |          Mulliken Center for Theoretical Chemistry        |     
     |                    University of Bonn                     |     
      -----------------------------------------------------------      

   * xtb version 6.5.1 (579679a) compiled by 'ehlert@majestix' on 2022-07-11

   xtb is free software: you can redistribute it and/or modify it under
   the terms of the GNU Lesser General Public License as published by
   the Free Software Foundation, either version 3 of the License, or
   (at your option) any later version.
   
   xtb is distributed in the hope that it will be useful,
   but WITHOUT ANY WARRANTY; without even the implied warranty of
   MERCHANTABILITY or FITNESS FOR A PARTICULAR PURPOSE.  See the
   GNU Lesser General Public License for more details.
   
   Cite this work as:
   * C. Bannwarth, E. Caldeweyher, S. Ehlert, A. Hansen, P. Pracht,
     J. Seibert, S. Spicher, S. Grimme, WIREs Comput. Mol. Sci., 2020, 11,
     e01493. DOI: 10.1002/wcms.1493
   
   for GFN2-xTB:
   * C. Bannwarth, S. Ehlert and S. Grimme., J. Chem. Theory Comput., 2019,
     15, 1652-1671. DOI: 10.1021/acs.jctc.8b01176
   for GFN1-xTB:
   * S. Grimme, C. Bannwarth, P. Shushkov, J. Chem. Theory Comput., 2017,
     13, 1989-2009. DOI: 10.1021/acs.jctc.7b00118
   for GFN0-xTB:
   * P. Pracht, E. Caldeweyher, S. Ehlert, S. Grimme, ChemRxiv, 2019, preprint.
     DOI: 10.26434/chemrxiv.8326202.v1
   for GFN-FF:
   * S. Spicher and S. Grimme, Angew. Chem. Int. Ed., 2020, 59, 15665-15673.
     DOI: 10.1002/anie.202004239
   
   for ALPB and GBSA implicit solvation:
   * S. Ehlert, M. Stahn, S. Spicher, S. Grimme, J. Chem. Theory Comput.,
     2021, 17, 4250-4261. DOI: 10.1021/acs.jctc.1c00471
   
   for DFT-D4:
   * E. Caldeweyher, C. Bannwarth and S. Grimme, J. Chem. Phys., 2017,
     147, 034112. DOI: 10.1063/1.4993215
   * E. Caldeweyher, S. Ehlert, A. Hansen, H. Neugebauer, S. Spicher,
     C. Bannwarth and S. Grimme, J. Chem. Phys., 2019, 150, 154122.
     DOI: 10.1063/1.5090222
   * E. Caldeweyher, J.-M. Mewes, S. Ehlert and S. Grimme, Phys. Chem. Chem. Phys.
     2020, 22, 8499-8512. DOI: 10.1039/D0CP00502A
   
   for sTDA-xTB:
   * S. Grimme and C. Bannwarth, J. Chem. Phys., 2016, 145, 054103.
     DOI: 10.1063/1.4959605
   
   in the mass-spec context:
   * V. Asgeirsson, C. Bauer and S. Grimme, Chem. Sci., 2017, 8, 4879.
     DOI: 10.1039/c7sc00601b
   * J. Koopman and S. Grimme, ACS Omega 2019, 4, 12, 15120-15133.
     DOI: 10.1021/acsomega.9b02011
   
   for metadynamics refer to:
   * S. Grimme, J. Chem. Theory Comput., 2019, 155, 2847-2862
     DOI: 10.1021/acs.jctc.9b00143
   
   for SPH calculations refer to:
   * S. Spicher and S. Grimme, J. Chem. Theory Comput., 2021, 17, 1701-1714
     DOI: 10.1021/acs.jctc.0c01306
   
   with help from (in alphabetical order)
   P. Atkinson, C. Bannwarth, F. Bohle, G. Brandenburg, E. Caldeweyher
   M. Checinski, S. Dohm, S. Ehlert, S. Ehrlich, I. Gerasimov, C. Hölzer
   A. Katbashev, J. Koopman, C. Lavigne, S. Lehtola, F. März, M. Müller,
   F. Musil, H. Neugebauer, J. Pisarek, C. Plett, P. Pracht, F. Pultar,
   J. Seibert, P. Shushkov, S. Spicher, M. Stahn, M. Steiner, T. Strunk,
   J. Stückrath, T. Rose, and J. Unsleber
   
 * started run on 2023/12/07 at 00:06:14.367     

           -------------------------------------------------
          |                Calculation Setup                |
           -------------------------------------------------

          program call               : otool_xtb /tmp/32_XTB.xyz --grad -c 0 -u 0 -P 1 --namespace /tmp/32 --input /tmp/32_XTB.input.tmp --acc 1.000000
          calculation namespace      : /tmp/32
          coordinate file            : /tmp/32_XTB.xyz
          omp threads                :                     1

   ID    Z sym.   atoms
    1    8 O      1, 4, 6, 8-10, 12, 13, 15, 18, 20, 22, 24-26
    2    6 C      2, 3, 5, 11, 14, 16, 17, 19, 21
    3   15 P      7, 23
    4    1 H      27-44

           -------------------------------------------------
          |                 G F N 2 - x T B                 |
           -------------------------------------------------

        Reference                      10.1021/acs.jctc.8b01176
      * Hamiltonian:
        H0-scaling (s, p, d)           1.850000    2.230000    2.230000
        zeta-weighting                 0.500000
      * Dispersion:
        s8                             2.700000
        a1                             0.520000
        a2                             5.000000
        s9                             5.000000
      * Repulsion:
        kExp                           1.500000    1.000000
        rExp                           1.000000
      * Coulomb:
        alpha                          2.000000
        third order                    shell-resolved
        anisotropic                    true
        a3                             3.000000
        a5                             4.000000
        cn-shift                       1.200000
        cn-exp                         4.000000
        max-rad                        5.000000

q/qsh data taken from xtbrestart
CAMM data taken from xtbrestart

          ...................................................
          :                      SETUP                      :
          :.................................................:
          :  # basis functions                 134          :
          :  # atomic orbitals                 132          :
          :  # shells                           72          :
          :  # electrons                       154          :
          :  max. iterations                   250          :
          :  Hamiltonian                  GFN2-xTB          :
          :  restarted?                       true          :
          :  GBSA solvation                  false          :
          :  PC potential                    false          :
          :  electronic temp.          300.0000000     K    :
          :  accuracy                    1.0000000          :
          :  -> integral cutoff          0.2500000E+02      :
          :  -> integral neglect         0.1000000E-07      :
          :  -> SCF convergence          0.1000000E-05 Eh   :
          :  -> wf. convergence          0.1000000E-03 e    :
          :  Broyden damping             0.4000000          :
          ...................................................

 iter      E             dE          RMSdq      gap      omega  full diag
   1    -95.3815814 -0.953816E+02  0.276E-01    2.79       0.0  T
   2    -95.3817025 -0.121113E-03  0.165E-01    2.79       1.0  T
   3    -95.3816891  0.133890E-04  0.499E-02    2.79       1.0  T
   4    -95.3817192 -0.301104E-04  0.132E-02    2.80       1.1  T
   5    -95.3817226 -0.339765E-05  0.606E-03    2.79       2.5  T
   6    -95.3817230 -0.374869E-06  0.214E-03    2.79       7.0  T
   7    -95.3817230 -0.144273E-07  0.930E-04    2.79      16.2  T
   8    -95.3817230 -0.426787E-08  0.312E-04    2.79      48.3  T

   *** convergence criteria satisfied after 8 iterations ***

         #    Occupation            Energy/Eh            Energy/eV
      -------------------------------------------------------------
         1        2.0000           -0.7604486             -20.6929
       ...           ...                  ...                  ...
        71        2.0000           -0.4481951             -12.1960
        72        2.0000           -0.4451158             -12.1122
        73        2.0000           -0.4442019             -12.0873
        74        2.0000           -0.4419241             -12.0254
        75        2.0000           -0.4409738             -11.9995
        76        2.0000           -0.4300927             -11.7034
        77        2.0000           -0.4057041             -11.0398 (HOMO)
        78                         -0.3030008              -8.2451 (LUMO)
        79                         -0.2840857              -7.7304
        80                         -0.0961305              -2.6158
        81                         -0.0821639              -2.2358
        82                         -0.0476342              -1.2962
       ...                                ...                  ...
       132                          1.2275242              33.4026
      -------------------------------------------------------------
                  HL-Gap            0.1027032 Eh            2.7947 eV
             Fermi-level           -0.3543524 Eh           -9.6424 eV

 SCC (total)                   0 d,  0 h,  0 min,  0.072 sec
 SCC setup                      ...        0 min,  0.000 sec (  0.496%)
 Dispersion                     ...        0 min,  0.000 sec (  0.663%)
 classical contributions        ...        0 min,  0.000 sec (  0.148%)
 integral evaluation            ...        0 min,  0.011 sec ( 15.729%)
 iterations                     ...        0 min,  0.023 sec ( 32.257%)
 molecular gradient             ...        0 min,  0.036 sec ( 50.159%)
 printout                       ...        0 min,  0.000 sec (  0.518%)

         :::::::::::::::::::::::::::::::::::::::::::::::::::::
         ::                     SUMMARY                     ::
         :::::::::::::::::::::::::::::::::::::::::::::::::::::
[...]
 22:    177.41   0.001846    9.33  0.003247  ( 0.035946 -0.036268 -0.025283)
 23:    180.43   0.005921   29.92  0.010241  (-0.077727  0.053014 -0.037270)
 24:    187.52   0.006221   31.44  0.010353  ( 0.026030  0.086120  0.047523)
 25:    203.15   0.008459   42.75  0.012994  ( 0.067832 -0.084109 -0.036315)
 26:    221.29   0.002804   14.17  0.003954  ( 0.059255 -0.003867  0.020676)
 27:    242.01   0.009857   49.81  0.012710  (-0.019054  0.108575  0.023624)
 28:    253.12   0.011250   56.85  0.013870  (-0.035602  0.100841  0.049332)
 29:    255.89   0.000034    0.17  0.000042  ( 0.005283  0.002417  0.002803)
 30:    266.41   0.004228   21.36  0.004952  ( 0.062662 -0.013371  0.029099)
 31:    277.45   0.000495    2.50  0.000556  (-0.003373 -0.006651  0.022374)
 32:    309.51   0.003565   18.02  0.003595  ( 0.044600  0.019660  0.034917)
 33:    319.79   0.005678   28.69  0.005541  ( 0.068156 -0.027149  0.012592)
 34:    326.12   0.004646   23.48  0.004445  ( 0.002174 -0.059734 -0.029539)
 35:    334.98   0.005715   28.88  0.005324  ( 0.031569  0.028494  0.059292)
 36:    338.95   0.005025   25.39  0.004626  ( 0.033160  0.037560  0.046001)
 37:    365.03   0.007057   35.66  0.006033  ( 0.003818  0.052891 -0.056752)
 38:    370.92   0.003997   20.20  0.003363  ( 0.007612  0.052104 -0.024291)
 39:    374.40   0.005735   28.98  0.004780  (-0.062220 -0.025685  0.015788)
 40:    381.69   0.008948   45.22  0.007316  (-0.046027  0.028350  0.066282)
 41:    383.34   0.004443   22.45  0.003617  (-0.006738  0.037324 -0.046673)
 42:    397.66   0.009919   50.13  0.007784  (-0.079673 -0.037807 -0.002560)
 43:    413.37   0.028354  143.29  0.021405  ( 0.114307  0.090393 -0.012972)
 44:    417.21   0.006407   32.38  0.004792  (-0.049069 -0.026110 -0.041267)
 45:    423.25   0.015398   77.81  0.011353  ( 0.022436  0.084677  0.060657)
 46:    429.93   0.006129   30.97  0.004449  (-0.046225 -0.048077  0.000724)
 47:    437.58   0.017122   86.53  0.012210  ( 0.073533  0.004973  0.082332)
 48:    438.91   0.031942  161.42  0.022711  ( 0.149284  0.020209  0.004070)
 49:    447.97   0.013976   70.63  0.009736  ( 0.020826 -0.016448 -0.095036)
 50:    467.38   0.010301   52.06  0.006878  (-0.066960  0.038232 -0.030538)
 51:    473.84   0.034469  174.19  0.022701  (-0.023302 -0.142874  0.041772)
 52:    484.54   0.003471   17.54  0.002236  ( 0.045407  0.013058  0.001808)
 53:    498.42   0.012215   61.73  0.007648  ( 0.039229 -0.034864 -0.069952)
 54:    503.71   0.003708   18.74  0.002297  (-0.023939  0.030861 -0.027781)
 55:    526.26   0.004734   23.92  0.002807  (-0.048758  0.017479 -0.011142)
 56:    577.02   0.008075   40.81  0.004367  (-0.040716 -0.051961  0.003090)
 57:    583.49   0.040550  204.92  0.021687  ( 0.083065 -0.121228 -0.009541)
 58:    615.12   0.006066   30.65  0.003077  ( 0.053557 -0.014404  0.001210)
 59:    617.45   0.005601   28.31  0.002831  ( 0.013273 -0.050673  0.009329)
 60:    700.68   0.001632    8.25  0.000727  (-0.009815  0.017449  0.018058)
 61:    732.46   0.003441   17.39  0.001466  ( 0.008911  0.031031  0.020583)
 62:    745.59   0.013170   66.55  0.005512  ( 0.036655  0.059217 -0.025728)
 63:    750.00   0.013140   66.41  0.005467  (-0.009433 -0.072362 -0.011926)
 64:    789.17   0.069243  349.92  0.027381  ( 0.155379  0.003375 -0.056804)
 65:    810.52   0.051481  260.17  0.019821  (-0.001322 -0.119072 -0.075107)
 66:    822.65   0.038539  194.76  0.014619  (-0.040330 -0.108424 -0.035171)
 67:    833.26   0.008518   43.04  0.003190  (-0.009238 -0.028758 -0.047724)
 68:    838.75   0.062397  315.33  0.023215  (-0.146958  0.029850 -0.026975)
 69:    859.91   0.022381  113.11  0.008122  ( 0.070908  0.052650  0.017951)
 70:    867.12   0.016757   84.68  0.006030  ( 0.012780  0.028216  0.071211)
 71:    878.82   0.009484   47.93  0.003368  ( 0.004250 -0.057853  0.001588)
 72:    899.53   0.006141   31.03  0.002130  ( 0.015115 -0.006378 -0.043142)
 73:    904.96   0.056024  283.12  0.019319  ( 0.049153 -0.023619 -0.127849)
 74:    921.01   0.034990  176.83  0.011856  ( 0.019553 -0.004210 -0.107031)
 75:    924.40   0.000466    2.36  0.000157  ( 0.011115 -0.001675 -0.005578)
 76:    940.78   0.108729  549.47  0.036066  ( 0.114007 -0.127057  0.083218)
 77:    943.30   0.007155   36.16  0.002367  (-0.018338 -0.006858 -0.044538)
 78:    985.93   0.012133   61.32  0.003840  ( 0.003808 -0.007698  0.061372)
 79:   1021.32   0.018629   94.14  0.005692  ( 0.004333  0.073187 -0.017808)
 80:   1037.60   0.012977   65.58  0.003903  ( 0.028600  0.027575  0.048213)
 81:   1044.56   0.019816  100.14  0.005920  (-0.054359 -0.052885  0.012981)
 82:   1067.10   0.009920   50.13  0.002901  (-0.048835 -0.017509 -0.014477)
 83:   1080.30   0.013409   67.76  0.003873  (-0.016149 -0.052214  0.029769)
 84:   1086.38   0.017221   87.03  0.004947  (-0.017810  0.031660 -0.060226)
 85:   1095.81   0.035740  180.62  0.010178  (-0.026780  0.047383 -0.084945)
 86:   1106.25   0.013013   65.76  0.003671  ( 0.051481 -0.018918  0.025741)
 87:   1107.18   0.025720  129.98  0.007249  (-0.043250  0.072747 -0.009307)
 88:   1116.87   0.011189   56.54  0.003126  (-0.036278 -0.009429  0.041487)
 89:   1129.92   0.018958   95.80  0.005236  (-0.002678 -0.067179 -0.026751)
 90:   1156.60   0.013582   68.64  0.003665  ( 0.054811 -0.022301 -0.012772)
 91:   1171.06   0.003870   19.56  0.001031  ( 0.014004 -0.021153  0.019691)
 92:   1180.87   0.018324   92.60  0.004842  ( 0.025594  0.031536  0.056506)
 93:   1212.12   0.094256  476.33  0.024267  (-0.155770  0.001091  0.001053)
 94:   1212.70   0.008235   41.62  0.002119  ( 0.012560 -0.016306 -0.041176)
 95:   1239.91   0.009120   46.09  0.002295  (-0.045531 -0.012114  0.008688)
 96:   1241.43   0.018061   91.27  0.004540  (-0.064232 -0.017699 -0.010051)
 97:   1257.81   0.007792   39.38  0.001933  ( 0.009058  0.041814 -0.010136)
 98:   1274.23   0.008789   44.42  0.002153  (-0.019211  0.007285 -0.041598)
 99:   1282.13   0.054147  273.64  0.013179  ( 0.097177  0.055096  0.026460)
100:   1283.70   0.011819   59.73  0.002873  ( 0.012493  0.029339 -0.043086)
101:   1295.34   0.000410    2.07  0.000099  ( 0.007818 -0.000962 -0.006054)
102:   1301.49   0.074736  377.68  0.017920  (-0.006009 -0.056597  0.121163)
103:   1320.42   0.000146    0.74  0.000035  ( 0.001868  0.002655  0.004897)
104:   1324.64   0.024304  122.82  0.005726  (-0.034337 -0.005835 -0.067175)
105:   1327.01   0.034340  173.54  0.008076  (-0.043884 -0.036648 -0.069331)
106:   1331.09   0.009379   47.40  0.002199  (-0.032916  0.010590 -0.031673)
107:   1347.19   0.004000   20.22  0.000927  (-0.005696 -0.012151 -0.027323)
108:   1357.44   0.002477   12.52  0.000569  ( 0.010225 -0.013640  0.016695)
109:   1429.42   0.001073    5.42  0.000234  (-0.013448 -0.005282  0.005059)
110:   1434.81   0.000389    1.97  0.000085  (-0.004727 -0.007874 -0.000581)
111:   1444.37   0.002476   12.51  0.000535  ( 0.022207  0.000732  0.006424)
112:   1757.47   0.048311  244.15  0.008578  ( 0.006524  0.090305  0.019513)
113:   1778.77   0.051703  261.29  0.009071  ( 0.046990 -0.057908  0.059240)
114:   2808.92   0.008899   44.97  0.000989  (-0.009351 -0.029831 -0.003371)
115:   2907.56   0.000231    1.17  0.000025  ( 0.004707 -0.000842  0.001397)
116:   2941.42   0.000793    4.01  0.000084  (-0.008863  0.001809 -0.001531)
117:   2958.61   0.000211    1.07  0.000022  (-0.004013  0.002402  0.000654)
118:   2963.61   0.006550   33.10  0.000690  (-0.025954  0.003997  0.000417)
119:   2965.23   0.000036    0.18  0.000004  (-0.001369 -0.000806  0.001143)
120:   2986.55   0.005568   28.14  0.000582  ( 0.008928 -0.022277  0.002411)
121:   2989.98   0.002857   14.44  0.000298  (-0.014831 -0.002919 -0.008347)
122:   2996.50   0.180232  910.82  0.018770  ( 0.081183 -0.107327  0.025692)
123:   3013.23   0.017118   86.51  0.001773  (-0.030981  0.028201 -0.004206)
124:   3271.04   0.093704  473.54  0.008940  ( 0.093879  0.001387 -0.011149)
125:   3407.56   0.015961   80.66  0.001462  (-0.025521  0.019717  0.020533)
126:   3451.88   0.012282   62.07  0.001110  ( 0.008392  0.024788 -0.020626)
127:   3515.78   0.002102   10.62  0.000187  ( 0.001897 -0.013283 -0.002560)
128:   3560.15   0.017106   86.45  0.001499  ( 0.010510 -0.010149 -0.035860)
129:   3625.05   0.011276   56.99  0.000971  (-0.020192  0.014431 -0.018835)
130:   3632.22   0.009927   50.17  0.000853  (-0.002116 -0.028369  0.006603)
131:   3637.96   0.025387  128.30  0.002178  (-0.015565 -0.035750  0.025639)

* The epsilon (eps) is given for a Dirac delta lineshape.
** The dipole moment derivative (T) already includes vibrational overlap.

The first frequency considered to be a vibration is 6
The total number of vibrations considered is 126


--------------------------
THERMOCHEMISTRY AT 298.15K
--------------------------

Temperature         ... 298.15 K
Pressure            ... 1.00 atm
Total Mass          ... 428.18 AMU

Throughout the following assumptions are being made:
  (1) The electronic state is orbitally nondegenerate
  (2) There are no thermally accessible electronically excited states
  (3) Hindered rotations indicated by low frequency modes are not
      treated as such but are treated as vibrations and this may
      cause some error
  (4) All equations used are the standard statistical mechanics
      equations for an ideal gas
  (5) All vibrations are strictly harmonic

freq.       5.93  E(vib)   ...       0.58 
freq.       9.33  E(vib)   ...       0.58 
freq.      21.60  E(vib)   ...       0.56 
freq.      32.40  E(vib)   ...       0.55 
freq.      38.07  E(vib)   ...       0.54 
freq.      51.76  E(vib)   ...       0.52 
freq.      61.51  E(vib)   ...       0.51 
freq.      68.88  E(vib)   ...       0.50 
freq.      82.67  E(vib)   ...       0.48 
freq.     106.39  E(vib)   ...       0.45 
freq.     115.98  E(vib)   ...       0.44 
freq.     124.95  E(vib)   ...       0.43 
freq.     137.63  E(vib)   ...       0.42 
freq.     158.57  E(vib)   ...       0.39 
freq.     163.22  E(vib)   ...       0.39 
freq.     168.46  E(vib)   ...       0.38 
freq.     177.41  E(vib)   ...       0.37 
freq.     180.43  E(vib)   ...       0.37 
freq.     187.52  E(vib)   ...       0.36 
freq.     203.15  E(vib)   ...       0.35 
freq.     221.29  E(vib)   ...       0.33 
freq.     242.01  E(vib)   ...       0.31 
freq.     253.12  E(vib)   ...       0.30 
freq.     255.89  E(vib)   ...       0.30 
freq.     266.41  E(vib)   ...       0.29 
freq.     277.45  E(vib)   ...       0.28 
freq.     309.51  E(vib)   ...       0.26 
freq.     319.79  E(vib)   ...       0.25 
freq.     326.12  E(vib)   ...       0.24 
freq.     334.98  E(vib)   ...       0.24 
freq.     338.95  E(vib)   ...       0.23 
freq.     365.03  E(vib)   ...       0.22 
freq.     370.92  E(vib)   ...       0.21 
freq.     374.40  E(vib)   ...       0.21 
freq.     381.69  E(vib)   ...       0.21 
freq.     383.34  E(vib)   ...       0.20 
freq.     397.66  E(vib)   ...       0.20 
freq.     413.37  E(vib)   ...       0.19 
freq.     417.21  E(vib)   ...       0.18 
freq.     423.25  E(vib)   ...       0.18 
freq.     429.93  E(vib)   ...       0.18 
freq.     437.58  E(vib)   ...       0.17 
freq.     438.91  E(vib)   ...       0.17 
freq.     447.97  E(vib)   ...       0.17 
freq.     467.38  E(vib)   ...       0.16 
freq.     473.84  E(vib)   ...       0.15 
freq.     484.54  E(vib)   ...       0.15 
freq.     498.42  E(vib)   ...       0.14 
freq.     503.71  E(vib)   ...       0.14 
freq.     526.26  E(vib)   ...       0.13 
freq.     577.02  E(vib)   ...       0.11 
freq.     583.49  E(vib)   ...       0.11 
freq.     615.12  E(vib)   ...       0.10 
freq.     617.45  E(vib)   ...       0.09 
freq.     700.68  E(vib)   ...       0.07 
freq.     732.46  E(vib)   ...       0.06 
freq.     745.59  E(vib)   ...       0.06 
freq.     750.00  E(vib)   ...       0.06 
freq.     789.17  E(vib)   ...       0.05 
freq.     810.52  E(vib)   ...       0.05 
freq.     822.65  E(vib)   ...       0.05 
freq.     833.26  E(vib)   ...       0.04 
freq.     838.75  E(vib)   ...       0.04 
freq.     859.91  E(vib)   ...       0.04 
freq.     867.12  E(vib)   ...       0.04 
freq.     878.82  E(vib)   ...       0.04 
freq.     899.53  E(vib)   ...       0.03 
freq.     904.96  E(vib)   ...       0.03 
freq.     921.01  E(vib)   ...       0.03 
freq.     924.40  E(vib)   ...       0.03 
freq.     940.78  E(vib)   ...       0.03 
freq.     943.30  E(vib)   ...       0.03 
freq.     985.93  E(vib)   ...       0.02 
freq.    1021.32  E(vib)   ...       0.02 
freq.    1037.60  E(vib)   ...       0.02 
freq.    1044.56  E(vib)   ...       0.02 
freq.    1067.10  E(vib)   ...       0.02 
freq.    1080.30  E(vib)   ...       0.02 
freq.    1086.38  E(vib)   ...       0.02 
freq.    1095.81  E(vib)   ...       0.02 
freq.    1106.25  E(vib)   ...       0.02 
freq.    1107.18  E(vib)   ...       0.02 
freq.    1116.87  E(vib)   ...       0.01 
freq.    1129.92  E(vib)   ...       0.01 
freq.    1156.60  E(vib)   ...       0.01 
freq.    1171.06  E(vib)   ...       0.01 
freq.    1180.87  E(vib)   ...       0.01 
freq.    1212.12  E(vib)   ...       0.01 
freq.    1212.70  E(vib)   ...       0.01 
freq.    1239.91  E(vib)   ...       0.01 
freq.    1241.43  E(vib)   ...       0.01 
freq.    1257.81  E(vib)   ...       0.01 
freq.    1274.23  E(vib)   ...       0.01 
freq.    1282.13  E(vib)   ...       0.01 
freq.    1283.70  E(vib)   ...       0.01 
freq.    1295.34  E(vib)   ...       0.01 
freq.    1301.49  E(vib)   ...       0.01 
freq.    1320.42  E(vib)   ...       0.01 
freq.    1324.64  E(vib)   ...       0.01 
freq.    1327.01  E(vib)   ...       0.01 
freq.    1331.09  E(vib)   ...       0.01 
freq.    1347.19  E(vib)   ...       0.01 
freq.    1357.44  E(vib)   ...       0.01 
freq.    1429.42  E(vib)   ...       0.00 
freq.    1434.81  E(vib)   ...       0.00 
freq.    1444.37  E(vib)   ...       0.00 
freq.    1757.47  E(vib)   ...       0.00 
freq.    1778.77  E(vib)   ...       0.00 
freq.    2808.92  E(vib)   ...       0.00 
freq.    2907.56  E(vib)   ...       0.00 
freq.    2941.42  E(vib)   ...       0.00 
freq.    2958.61  E(vib)   ...       0.00 
freq.    2963.61  E(vib)   ...       0.00 
freq.    2965.23  E(vib)   ...       0.00 
freq.    2986.55  E(vib)   ...       0.00 
freq.    2989.98  E(vib)   ...       0.00 
freq.    2996.50  E(vib)   ...       0.00 
freq.    3013.23  E(vib)   ...       0.00 
freq.    3271.04  E(vib)   ...       0.00 
freq.    3407.56  E(vib)   ...       0.00 
freq.    3451.88  E(vib)   ...       0.00 
freq.    3515.78  E(vib)   ...       0.00 
freq.    3560.15  E(vib)   ...       0.00 
freq.    3625.05  E(vib)   ...       0.00 
freq.    3632.22  E(vib)   ...       0.00 
freq.    3637.96  E(vib)   ...       0.00 

------------
INNER ENERGY
------------

The inner energy is: U= E(el) + E(ZPE) + E(vib) + E(rot) + E(trans)
    E(el)   - is the total energy from the electronic structure calculation
              = E(kin-el) + E(nuc-el) + E(el-el) + E(nuc-nuc)
    E(ZPE)  - the the zero temperature vibrational energy from the frequency calculation
    E(vib)  - the the finite temperature correction to E(ZPE) due to population
              of excited vibrational states
    E(rot)  - is the rotational thermal energy
    E(trans)- is the translational thermal energy

Summary of contributions to the inner energy U:
Electronic energy                ...    -94.77172264 Eh
Zero point energy                ...      0.30415201 Eh     190.86 kcal/mol
Thermal vibrational correction   ...      0.02733865 Eh      17.16 kcal/mol
Thermal rotational correction    ...      0.00141627 Eh       0.89 kcal/mol
Thermal translational correction ...      0.00141627 Eh       0.89 kcal/mol
-----------------------------------------------------------------------
Total thermal energy                    -94.43739943 Eh


Summary of corrections to the electronic energy:
(perhaps to be used in another calculation)
Total thermal correction                  0.03017120 Eh      18.93 kcal/mol
Non-thermal (ZPE) correction              0.30415201 Eh     190.86 kcal/mol
-----------------------------------------------------------------------
Total correction                          0.33432320 Eh     209.79 kcal/mol


--------
ENTHALPY
--------

The enthalpy is H = U + kB*T
                kB is Boltzmann's constant
Total free energy                 ...    -94.43739943 Eh 
Thermal Enthalpy correction       ...      0.00094421 Eh       0.59 kcal/mol
-----------------------------------------------------------------------
Total Enthalpy                    ...    -94.43645523 Eh


Note: Only C1 symmetry has been detected, increase convergence thresholds 
      if your molecule has a higher symmetry. Symmetry factor of 1.0 is   
      used for the rotational entropy correction. 
 

Note: Rotational entropy computed according to Herzberg 
Infrared and Raman Spectra, Chapter V,1, Van Nostrand Reinhold, 1945 
Point Group:  C1, Symmetry Number:   1  
Rotational constants in cm-1:     0.008472     0.003670     0.002968 

Vibrational entropy computed according to the QRRHO of S. Grimme
Chem.Eur.J. 2012 18 9955


-------
ENTROPY
-------

The entropy contributions are T*S = T*(S(el)+S(vib)+S(rot)+S(trans))
     S(el)   - electronic entropy
     S(vib)  - vibrational entropy
     S(rot)  - rotational entropy
     S(trans)- translational entropy
The entropies will be listed as multiplied by the temperature to get
units of energy

Electronic entropy                ...      0.00000000 Eh      0.00 kcal/mol
Vibrational entropy               ...      0.04985116 Eh     31.28 kcal/mol
Rotational entropy                ...      0.01715801 Eh     10.77 kcal/mol
Translational entropy             ...      0.02093102 Eh     13.13 kcal/mol
-----------------------------------------------------------------------
Final entropy term                ...      0.08794020 Eh     55.18 kcal/mol

In case the symmetry of your molecule has not been determined correctly
or in case you have a reason to use a different symmetry number we print 
out the resulting rotational entropy values for sn=1,12 :
 --------------------------------------------------------
|  sn= 1 | S(rot)=       0.01715801 Eh     10.77 kcal/mol|
|  sn= 2 | S(rot)=       0.01650356 Eh     10.36 kcal/mol|
|  sn= 3 | S(rot)=       0.01612073 Eh     10.12 kcal/mol|
|  sn= 4 | S(rot)=       0.01584910 Eh      9.95 kcal/mol|
|  sn= 5 | S(rot)=       0.01563841 Eh      9.81 kcal/mol|
|  sn= 6 | S(rot)=       0.01546627 Eh      9.71 kcal/mol|
|  sn= 7 | S(rot)=       0.01532072 Eh      9.61 kcal/mol|
|  sn= 8 | S(rot)=       0.01519465 Eh      9.53 kcal/mol|
|  sn= 9 | S(rot)=       0.01508344 Eh      9.46 kcal/mol|
|  sn=10 | S(rot)=       0.01498396 Eh      9.40 kcal/mol|
|  sn=11 | S(rot)=       0.01489397 Eh      9.35 kcal/mol|
|  sn=12 | S(rot)=       0.01481181 Eh      9.29 kcal/mol|
 --------------------------------------------------------


-------------------
GIBBS FREE ENERGY
-------------------

The Gibbs free energy is G = H - T*S

Total enthalpy                    ...    -94.43645523 Eh 
Total entropy correction          ...     -0.08794020 Eh    -55.18 kcal/mol
-----------------------------------------------------------------------
Final Gibbs free energy         ...    -94.52439542 Eh

For completeness - the Gibbs free energy minus the electronic energy
G-E(el)                           ...      0.24732722 Eh    155.20 kcal/mol



Timings for individual modules:

Sum of individual times         ...      676.851 sec (=  11.281 min)
Geometry relaxation             ...        9.833 sec (=   0.164 min)   1.5 %
Numerical frequency calculation ...      659.401 sec (=  10.990 min)  97.4 %
XTB module                      ...        7.617 sec (=   0.127 min)   1.1 %
                             ****ORCA TERMINATED NORMALLY****
TOTAL RUN TIME: 0 days 0 hours 11 minutes 24 seconds 594 msec
