
                                 *****************
                                 * O   R   C   A *
                                 *****************

                                            #,                                       
                                            ###                                      
                                            ####                                     
                                            #####                                    
                                            ######                                   
                                           ########,                                 
                                     ,,################,,,,,                         
                               ,,#################################,,                 
                          ,,##########################################,,             
                       ,#########################################, ''#####,          
                    ,#############################################,,   '####,        
                  ,##################################################,,,,####,       
                ,###########''''           ''''###############################       
              ,#####''   ,,,,##########,,,,          '''####'''          '####       
            ,##' ,,,,###########################,,,                        '##       
           ' ,,###''''                  '''############,,,                           
         ,,##''                                '''############,,,,        ,,,,,,###''
      ,#''                                            '''#######################'''  
     '                                                          ''''####''''         
             ,#######,   #######,   ,#######,      ##                                
            ,#'     '#,  ##    ##  ,#'     '#,    #''#        ######   ,####,        
            ##       ##  ##   ,#'  ##            #'  '#       #        #'  '#        
            ##       ##  #######   ##           ,######,      #####,   #    #        
            '#,     ,#'  ##    ##  '#,     ,#' ,#      #,         ##   #,  ,#        
             '#######'   ##     ##  '#######'  #'      '#     #####' # '####'        



                  #######################################################
                  #                        -***-                        #
                  #          Department of theory and spectroscopy      #
                  #    Directorship and core code : Frank Neese         #
                  #        Max Planck Institute fuer Kohlenforschung    #
                  #                Kaiser Wilhelm Platz 1               #
                  #                 D-45470 Muelheim/Ruhr               #
                  #                      Germany                        #
                  #                                                     #
                  #                  All rights reserved                #
                  #                        -***-                        #
                  #######################################################


                         Program Version 5.0.3 -  RELEASE  -


 With contributions from (in alphabetic order):
   Daniel Aravena         : Magnetic Suceptibility
   Michael Atanasov       : Ab Initio Ligand Field Theory (pilot matlab implementation)
   Alexander A. Auer      : GIAO ZORA, VPT2 properties, NMR spectrum
   Ute Becker             : Parallelization
   Giovanni Bistoni       : ED, misc. LED, open-shell LED, HFLD
   Martin Brehm           : Molecular dynamics
   Dmytro Bykov           : SCF Hessian
   Vijay G. Chilkuri      : MRCI spin determinant printing, contributions to CSF-ICE
   Dipayan Datta          : RHF DLPNO-CCSD density
   Achintya Kumar Dutta   : EOM-CC, STEOM-CC
   Dmitry Ganyushin       : Spin-Orbit,Spin-Spin,Magnetic field MRCI
   Miquel Garcia          : C-PCM and meta-GGA Hessian, CC/C-PCM, Gaussian charge scheme
   Yang Guo               : DLPNO-NEVPT2, F12-NEVPT2, CIM, IAO-localization
   Andreas Hansen         : Spin unrestricted coupled pair/coupled cluster methods
   Benjamin Helmich-Paris : MC-RPA, TRAH-SCF, COSX integrals
   Lee Huntington         : MR-EOM, pCC
   Robert Izsak           : Overlap fitted RIJCOSX, COSX-SCS-MP3, EOM
   Marcus Kettner         : VPT2
   Christian Kollmar      : KDIIS, OOCD, Brueckner-CCSD(T), CCSD density, CASPT2, CASPT2-K
   Simone Kossmann        : Meta GGA functionals, TD-DFT gradient, OOMP2, MP2 Hessian
   Martin Krupicka        : Initial AUTO-CI
   Lucas Lang             : DCDCAS
   Marvin Lechner         : AUTO-CI (C++ implementation), FIC-MRCC
   Dagmar Lenk            : GEPOL surface, SMD
   Dimitrios Liakos       : Extrapolation schemes; Compound Job, initial MDCI parallelization
   Dimitrios Manganas     : Further ROCIS development; embedding schemes
   Dimitrios Pantazis     : SARC Basis sets
   Anastasios Papadopoulos: AUTO-CI, single reference methods and gradients
   Taras Petrenko         : DFT Hessian,TD-DFT gradient, ASA, ECA, R-Raman, ABS, FL, XAS/XES, NRVS
   Peter Pinski           : DLPNO-MP2, DLPNO-MP2 Gradient
   Christoph Reimann      : Effective Core Potentials
   Marius Retegan         : Local ZFS, SOC
   Christoph Riplinger    : Optimizer, TS searches, QM/MM, DLPNO-CCSD(T), (RO)-DLPNO pert. Triples
   Tobias Risthaus        : Range-separated hybrids, TD-DFT gradient, RPA, STAB
   Michael Roemelt        : Original ROCIS implementation
   Masaaki Saitow         : Open-shell DLPNO-CCSD energy and density
   Barbara Sandhoefer     : DKH picture change effects
   Avijit Sen             : IP-ROCIS
   Kantharuban Sivalingam : CASSCF convergence, NEVPT2, FIC-MRCI
   Bernardo de Souza      : ESD, SOC TD-DFT
   Georgi Stoychev        : AutoAux, RI-MP2 NMR, DLPNO-MP2 response
   Willem Van den Heuvel  : Paramagnetic NMR
   Boris Wezisla          : Elementary symmetry handling
   Frank Wennmohs         : Technical directorship


 We gratefully acknowledge several colleagues who have allowed us to
 interface, adapt or use parts of their codes:
   Stefan Grimme, W. Hujo, H. Kruse, P. Pracht,  : VdW corrections, initial TS optimization,
                  C. Bannwarth, S. Ehlert          DFT functionals, gCP, sTDA/sTD-DF
   Ed Valeev, F. Pavosevic, A. Kumar             : LibInt (2-el integral package), F12 methods
   Garnet Chan, S. Sharma, J. Yang, R. Olivares  : DMRG
   Ulf Ekstrom                                   : XCFun DFT Library
   Mihaly Kallay                                 : mrcc  (arbitrary order and MRCC methods)
   Jiri Pittner, Ondrej Demel                    : Mk-CCSD
   Frank Weinhold                                : gennbo (NPA and NBO analysis)
   Christopher J. Cramer and Donald G. Truhlar   : smd solvation model
   Lars Goerigk                                  : TD-DFT with DH, B97 family of functionals
   V. Asgeirsson, H. Jonsson                     : NEB implementation
   FAccTs GmbH                                   : IRC, NEB, NEB-TS, DLPNO-Multilevel, CI-OPT
                                                   MM, QMMM, 2- and 3-layer-ONIOM, Crystal-QMMM,
                                                   LR-CPCM, SF, NACMEs, symmetry and pop. for TD-DFT,
                                                   nearIR, NL-DFT gradient (VV10), updates on ESD,
                                                   ML-optimized integration grids
   S Lehtola, MJT Oliveira, MAL Marques          : LibXC Library
   Liviu Ungur et al                             : ANISO software


 Your calculation uses the libint2 library for the computation of 2-el integrals
 For citations please refer to: http://libint.valeyev.net

 Your ORCA version has been built with support for libXC version: 5.1.0
 For citations please refer to: https://tddft.org/programs/libxc/

 This ORCA versions uses:
   CBLAS   interface :  Fast vector & matrix operations
   LAPACKE interface :  Fast linear algebra routines
   SCALAPACK package :  Parallel linear algebra routines
   Shared memory     :  Shared parallel matrices
   BLAS/LAPACK       :  OpenBLAS 0.3.15  USE64BITINT DYNAMIC_ARCH NO_AFFINITY Haswell SINGLE_THREADED
        Core in use  :  Haswell
   Copyright (c) 2011-2014, The OpenBLAS Project


Your calculation utilizes the semiempirical GFN2-xTB method
Please cite in your paper:
C. Bannwarth, Ehlert S., S. Grimme,  J. Chem. Theory Comput., 15, (2019), 1652.
   

================================================================================

================================================================================
                                        WARNINGS
                       Please study these warnings very carefully!
================================================================================


WARNING: Geometry Optimization
  ===> : Switching off AutoStart
         For restart on a previous wavefunction, please use MOREAD

WARNING: Found dipole moment calculation with XTB calculation
  ===> : Switching off dipole moment calculation


WARNING: TRAH-SCF for XTB is not implemented!
  ===> : Turning TRAH off!

================================================================================
                                       INPUT FILE
================================================================================
NAME = /tmp/33.inp
|  1> ! XTB2 opt numfreq
|  2> * XYZ 0 1
|  3> O -3.9309 1.5928 1.3205
|  4> C -2.8859 0.9373 1.2692
|  5> C -2.4725 0.0978 0.0529
|  6> O -2.9453 0.7612 -1.1295
|  7> C -3.2187 -1.2465 0.2097
|  8> O -4.6170 -1.0303 0.0018
|  9> P -5.6618 -1.3470 1.1708
| 10> O -7.0967 -1.1035 0.8633
| 11> O -5.3420 -2.8556 1.5824
| 12> O -5.1141 -0.5350 2.4287
| 13> C -0.9173 -0.0302 0.0226
| 14> O -0.4778 -0.5596 1.2816
| 15> C -0.2439 1.3471 -0.2257
| 16> C 1.2174 1.5351 0.2281
| 17> O 1.6254 2.8608 -0.1375
| 18> C 2.2332 0.5150 -0.3136
| 19> O 1.9574 -0.7896 0.2215
| 20> C 3.6739 0.8877 0.0588
| 21> O 4.5238 -0.1438 -0.4321
| 22> P 6.0996 0.1159 -0.3632
| 23> O 6.6428 0.5923 0.9373
| 24> O 6.7610 -1.2386 -0.8777
| 25> O 6.3975 1.1221 -1.5635
| 26> C -0.5451 -0.9768 -1.1450
| 27> O -0.2928 -0.6690 -2.2984
| 28> O -0.4750 -2.2734 -0.7685
| 29> H -2.2420 0.8647 2.1626
| 30> H -3.9237 0.7465 -1.0724
| 31> H -3.0258 -1.7097 1.1833
| 32> H -2.9310 -1.9535 -0.5713
| 33> H -6.0555 -3.2079 2.1442
| 34> H -5.2390 0.4313 2.2921
| 35> H 0.4150 -0.9443 1.1126
| 36> H -0.3322 1.6276 -1.2843
| 37> H -0.8109 2.1276 0.2999
| 38> H 1.2358 1.4957 1.3244
| 39> H 1.3623 3.0211 -1.0626
| 40> H 2.1592 0.4446 -1.4050
| 41> H 2.7487 -1.3239 -0.0046
| 42> H 3.7925 0.9339 1.1463
| 43> H 3.9673 1.8451 -0.3827
| 44> H 7.7162 -1.2607 -0.6890
| 45> H 6.4649 2.0423 -1.2499
| 46> H -0.1972 -2.7468 -1.5815
| 47> *
| 48> 
| 49>                          ****END OF INPUT****
================================================================================

                       *****************************
                       * Geometry Optimization Run *
                       *****************************

Geometry optimization settings:
Update method            Update   .... BFGS
Choice of coordinates    CoordSys .... Z-matrix Internals
Initial Hessian          InHess   .... Almoef's Model

Convergence Tolerances:
Energy Change            TolE     ....  5.0000e-06 Eh
Max. Gradient            TolMAXG  ....  3.0000e-04 Eh/bohr
RMS Gradient             TolRMSG  ....  1.0000e-04 Eh/bohr
Max. Displacement        TolMAXD  ....  4.0000e-03 bohr
RMS Displacement         TolRMSD  ....  2.0000e-03 bohr
Strict Convergence                ....  False
------------------------------------------------------------------------------
                        ORCA OPTIMIZATION COORDINATE SETUP
------------------------------------------------------------------------------

The optimization will be done in new redundant internal coordinates
Making redundant internal coordinates   ...  (new redundants) done
Evaluating the initial hessian          ...  (Almloef) done
Evaluating the coordinates              ...  done
Calculating the B-matrix                .... done
Calculating the G-matrix                .... done
Diagonalizing the G-matrix              .... done
Small eigenvalue found = 1.574e-03
Small eigenvalue found = 3.637e-03
Small eigenvalue found = 8.928e-03
Small eigenvalue found = 1.205e-02
Small eigenvalue found = 1.407e-02
Small eigenvalue found = 1.564e-02
Small eigenvalue found = 2.248e-02
The first mode is                       ....   92
The number of degrees of freedom        ....  126

    -----------------------------------------------------------------
                    Redundant Internal Coordinates


    -----------------------------------------------------------------
         Definition                    Initial Value    Approx d2E/dq
    -----------------------------------------------------------------
      1. B(C   1,O   0)                  1.2346         0.990243   
      2. B(C   2,C   1)                  1.5346         0.367294   
      3. B(O   3,C   2)                  1.4359         0.472825   
      4. B(C   4,C   2)                  1.5455         0.352909   
      5. B(O   5,C   4)                  1.4301         0.482932   
      6. B(P   6,O   5)                  1.5995         0.871149   
      7. B(O   7,P   6)                  1.4875         1.314451   
      8. B(O   8,P   6)                  1.5961         0.882140   
      9. B(O   9,P   6)                  1.5942         0.888183   
     10. B(C  10,C   2)                  1.5608         0.333667   
     11. B(O  11,C  10)                  1.4347         0.474767   
     12. B(C  12,C  10)                  1.5531         0.343199   
     13. B(C  13,C  12)                  1.5416         0.357928   
     14. B(O  14,C  13)                  1.4344         0.475313   
     15. B(C  15,C  13)                  1.5381         0.362561   
     16. B(O  16,C  15)                  1.4368         0.471213   
     17. B(C  17,C  15)                  1.5340         0.368104   
     18. B(O  18,C  17)                  1.4238         0.494191   
     19. B(P  19,O  18)                  1.5985         0.874286   
     20. B(O  20,P  19)                  1.4877         1.313580   
     21. B(O  21,P  19)                  1.5927         0.893112   
     22. B(O  22,P  19)                  1.5943         0.887905   
     23. B(C  23,C  10)                  1.5485         0.349020   
     24. B(O  24,C  23)                  1.2201         1.044444   
     25. B(O  25,C  23)                  1.3520         0.643489   
     26. B(H  26,C   1)                  1.1036         0.342489   
     27. B(H  27,O   3)                  0.9802         0.482813   
     28. B(H  28,C   4)                  1.0953         0.353169   
     29. B(H  29,C   4)                  1.0921         0.357393   
     30. B(H  30,O   8)                  0.9741         0.493759   
     31. B(H  31,O   9)                  0.9839         0.476308   
     32. B(H  32,O  11)                  0.9867         0.471316   
     33. B(H  33,C  12)                  1.0987         0.348791   
     34. B(H  34,C  12)                  1.0986         0.348900   
     35. B(H  35,C  13)                  1.0972         0.350749   
     36. B(H  36,O  14)                  0.9751         0.491984   
     37. B(H  37,C  15)                  1.0962         0.352031   
     38. B(H  38,O  16)                  0.9812         0.480998   
     39. B(H  39,C  17)                  1.0949         0.353646   
     40. B(H  40,C  17)                  1.0944         0.354380   
     41. B(H  41,O  21)                  0.9739         0.494051   
     42. B(H  42,O  22)                  0.9745         0.492979   
     43. B(H  43,O  25)                  0.9809         0.481452   
     44. A(O   0,C   1,C   2)          123.4615         0.426968   
     45. A(O   0,C   1,H  26)          119.6766         0.376715   
     46. A(C   2,C   1,H  26)          116.6434         0.320772   
     47. A(O   3,C   2,C   4)          109.0528         0.372325   
     48. A(C   1,C   2,C  10)          109.1884         0.355401   
     49. A(C   1,C   2,C   4)          105.3879         0.358803   
     50. A(C   4,C   2,C  10)          114.3142         0.353003   
     51. A(O   3,C   2,C  10)          110.4880         0.368752   
     52. A(C   1,C   2,O   3)          108.1328         0.374898   
     53. A(C   2,O   3,H  27)          105.8894         0.348993   
     54. A(O   5,C   4,H  29)          104.5660         0.335925   
     55. A(C   2,C   4,H  29)          111.3072         0.320911   
     56. A(C   2,C   4,O   5)          109.0164         0.373684   
     57. A(C   2,C   4,H  28)          111.9007         0.320287   
     58. A(O   5,C   4,H  28)          111.4295         0.335261   
     59. A(H  28,C   4,H  29)          108.3924         0.289611   
     60. A(C   4,O   5,P   6)          120.1648         0.465400   
     61. A(O   8,P   6,O   9)          102.0697         0.559791   
     62. A(O   7,P   6,O   8)          113.6593         0.603470   
     63. A(O   5,P   6,O   8)          104.1661         0.557732   
     64. A(O   7,P   6,O   9)          114.2752         0.604266   
     65. A(O   5,P   6,O   9)          104.5606         0.558457   
     66. A(O   5,P   6,O   7)          116.5252         0.602012   
     67. A(P   6,O   8,H  30)          110.1095         0.415979   
     68. A(P   6,O   9,H  31)          110.3086         0.413828   
     69. A(O  11,C  10,C  23)          111.2517         0.371877   
     70. A(O  11,C  10,C  12)          109.5539         0.370803   
     71. A(C  12,C  10,C  23)          108.5023         0.354026   
     72. A(C   2,C  10,C  12)          111.2489         0.351341   
     73. A(C   2,C  10,C  23)          107.7147         0.352341   
     74. A(C   2,C  10,O  11)          108.5699         0.369012   
     75. A(C  10,O  11,H  32)          105.7076         0.347819   
     76. A(C  13,C  12,H  34)          105.1736         0.320390   
     77. A(C  10,C  12,H  34)          109.2547         0.318200   
     78. A(C  13,C  12,H  33)          109.1879         0.320374   
     79. A(C  10,C  12,H  33)          110.2186         0.318184   
     80. A(H  33,C  12,H  34)          103.7751         0.287959   
     81. A(C  10,C  12,C  13)          118.1691         0.355542   
     82. A(C  15,C  13,H  35)          108.4821         0.321343   
     83. A(C  12,C  13,H  35)          107.7971         0.320667   
     84. A(O  14,C  13,C  15)          109.5924         0.374399   
     85. A(C  12,C  13,C  15)          116.1960         0.358873   
     86. A(C  12,C  13,O  14)          107.8958         0.373570   
     87. A(O  14,C  13,H  35)          106.4448         0.333995   
     88. A(C  13,O  14,H  36)          108.4820         0.350414   
     89. A(C  17,C  15,H  37)          108.7059         0.322335   
     90. A(O  16,C  15,H  37)          107.4295         0.333717   
     91. A(C  13,C  15,H  37)          110.4051         0.321535   
     92. A(O  16,C  15,C  17)          108.0876         0.374820   
     93. A(C  13,C  15,C  17)          111.9383         0.360591   
     94. A(C  13,C  15,O  16)          110.1363         0.373840   
     95. A(C  15,O  16,H  38)          104.7033         0.348571   
     96. A(C  15,C  17,O  18)          107.5111         0.377917   
     97. A(H  39,C  17,H  40)          109.5569         0.289288   
     98. A(C  15,C  17,H  40)          111.4942         0.322686   
     99. A(O  18,C  17,H  39)          107.9597         0.336625   
    100. A(C  15,C  17,H  39)          110.6768         0.322576   
    101. A(O  18,C  17,H  40)          109.5520         0.336741   
    102. A(C  17,O  18,P  19)          117.1204         0.467677   
    103. A(O  18,P  19,O  22)          104.7304         0.558806   
    104. A(O  20,P  19,O  21)          113.7707         0.604834   
    105. A(O  18,P  19,O  21)          104.9080         0.559428   
    106. A(O  18,P  19,O  20)          116.7198         0.602353   
    107. A(O  21,P  19,O  22)          102.4698         0.561076   
    108. A(O  20,P  19,O  22)          112.8172         0.604152   
    109. A(P  19,O  21,H  41)          111.3454         0.416939   
    110. A(P  19,O  22,H  42)          111.5057         0.416344   
    111. A(O  24,C  23,O  25)          119.6344         0.474163   
    112. A(C  10,C  23,O  25)          112.8763         0.392032   
    113. A(C  10,C  23,O  24)          127.4643         0.427141   
    114. A(C  23,O  25,H  43)          104.2829         0.367598   
    115. D(C  10,C   2,C   1,O   0)    153.7271         0.010113   
    116. D(O   3,C   2,C   1,O   0)     33.4664         0.010113   
    117. D(C  10,C   2,C   1,H  26)    -31.6736         0.010113   
    118. D(C   4,C   2,C   1,H  26)     91.5528         0.010113   
    119. D(C   4,C   2,C   1,O   0)    -83.0465         0.010113   
    120. D(O   3,C   2,C   1,H  26)   -151.9343         0.010113   
    121. D(H  27,O   3,C   2,C   1)    -64.5993         0.017626   
    122. D(H  27,O   3,C   2,C   4)     49.5114         0.017626   
    123. D(H  27,O   3,C   2,C  10)    175.9570         0.017626   
    124. D(H  28,C   4,C   2,C   1)    -54.0878         0.010021   
    125. D(H  28,C   4,C   2,C  10)     65.8080         0.010021   
    126. D(H  28,C   4,C   2,O   3)   -169.9716         0.010021   
    127. D(O   5,C   4,C   2,C  10)   -170.4773         0.010021   
    128. D(O   5,C   4,C   2,C   1)     69.6268         0.010021   
    129. D(O   5,C   4,C   2,O   3)    -46.2570         0.010021   
    130. D(H  29,C   4,C   2,C  10)    -55.6457         0.010021   
    131. D(H  29,C   4,C   2,O   3)     68.5746         0.010021   
    132. D(H  29,C   4,C   2,C   1)   -175.5416         0.010021   
    133. D(P   6,O   5,C   4,H  28)      4.8545         0.018403   
    134. D(P   6,O   5,C   4,H  29)    121.7393         0.018403   
    135. D(P   6,O   5,C   4,C   2)   -119.1392         0.018403   
    136. D(O   8,P   6,O   5,C   4)    -53.4469         0.013134   
    137. D(O   7,P   6,O   5,C   4)   -179.5017         0.013134   
    138. D(O   9,P   6,O   5,C   4)     53.3140         0.013134   
    139. D(H  30,O   8,P   6,O   9)     84.3061         0.013452   
    140. D(H  30,O   8,P   6,O   7)    -39.2446         0.013452   
    141. D(H  30,O   8,P   6,O   5)   -167.0841         0.013452   
    142. D(H  31,O   9,P   6,O   8)    178.9903         0.013628   
    143. D(H  31,O   9,P   6,O   5)     70.6831         0.013628   
    144. D(H  31,O   9,P   6,O   7)    -57.8751         0.013628   
    145. D(O  11,C  10,C   2,C   1)     54.8213         0.009046   
    146. D(C  23,C  10,C   2,O   3)    -65.7964         0.009046   
    147. D(C  23,C  10,C   2,C   1)    175.3998         0.009046   
    148. D(C  12,C  10,C   2,C   4)    176.4475         0.009046   
    149. D(C  12,C  10,C   2,O   3)     52.9967         0.009046   
    150. D(C  12,C  10,C   2,C   1)    -65.8071         0.009046   
    151. D(O  11,C  10,C   2,C   4)    -62.9242         0.009046   
    152. D(C  23,C  10,C   2,C   4)     57.6543         0.009046   
    153. D(O  11,C  10,C   2,O   3)    173.6251         0.009046   
    154. D(H  32,O  11,C  10,C  23)     40.4166         0.017774   
    155. D(H  32,O  11,C  10,C  12)    -79.5483         0.017774   
    156. D(H  32,O  11,C  10,C   2)    158.7803         0.017774   
    157. D(H  34,C  12,C  10,O  11)    -82.9005         0.009521   
    158. D(H  34,C  12,C  10,C  23)    155.4669         0.009521   
    159. D(H  34,C  12,C  10,C   2)     37.1469         0.009521   
    160. D(H  33,C  12,C  10,C  23)     42.0492         0.009521   
    161. D(H  33,C  12,C  10,O  11)    163.6819         0.009521   
    162. D(H  33,C  12,C  10,C   2)    -76.2707         0.009521   
    163. D(C  13,C  12,C  10,C  23)    -84.4299         0.009521   
    164. D(C  13,C  12,C  10,O  11)     37.2027         0.009521   
    165. D(C  13,C  12,C  10,C   2)    157.2501         0.009521   
    166. D(H  35,C  13,C  12,H  34)     55.2436         0.010287   
    167. D(H  35,C  13,C  12,C  10)    -66.9523         0.010287   
    168. D(C  15,C  13,C  12,H  34)    177.1802         0.010287   
    169. D(C  15,C  13,C  12,H  33)    -71.9895         0.010287   
    170. D(C  15,C  13,C  12,C  10)     54.9844         0.010287   
    171. D(O  14,C  13,C  12,H  34)    -59.3447         0.010287   
    172. D(H  35,C  13,C  12,H  33)    166.0738         0.010287   
    173. D(O  14,C  13,C  12,H  33)     51.4856         0.010287   
    174. D(O  14,C  13,C  12,C  10)    178.4595         0.010287   
    175. D(H  36,O  14,C  13,H  35)   -162.7500         0.017815   
    176. D(H  36,O  14,C  13,C  15)     80.1270         0.017815   
    177. D(H  36,O  14,C  13,C  12)    -47.2698         0.017815   
    178. D(H  37,C  15,C  13,H  35)    173.4831         0.010536   
    179. D(H  37,C  15,C  13,C  12)     51.9090         0.010536   
    180. D(C  17,C  15,C  13,H  35)    -65.2701         0.010536   
    181. D(C  17,C  15,C  13,O  14)     50.5662         0.010536   
    182. D(C  17,C  15,C  13,C  12)    173.1559         0.010536   
    183. D(O  16,C  15,C  13,H  35)     55.0070         0.010536   
    184. D(H  37,C  15,C  13,O  14)    -70.6806         0.010536   
    185. D(O  16,C  15,C  13,O  14)    170.8433         0.010536   
    186. D(O  16,C  15,C  13,C  12)    -66.5670         0.010536   
    187. D(H  38,O  16,C  15,H  37)     71.9471         0.017504   
    188. D(H  38,O  16,C  15,C  17)    -45.1924         0.017504   
    189. D(H  38,O  16,C  15,C  13)   -167.7654         0.017504   
    190. D(H  40,C  17,C  15,H  37)     59.6804         0.010839   
    191. D(H  40,C  17,C  15,O  16)    175.9929         0.010839   
    192. D(H  40,C  17,C  15,C  13)    -62.5424         0.010839   
    193. D(H  39,C  17,C  15,H  37)   -178.1009         0.010839   
    194. D(H  39,C  17,C  15,O  16)    -61.7884         0.010839   
    195. D(H  39,C  17,C  15,C  13)     59.6762         0.010839   
    196. D(O  18,C  17,C  15,H  37)    -60.4122         0.010839   
    197. D(O  18,C  17,C  15,O  16)     55.9003         0.010839   
    198. D(O  18,C  17,C  15,C  13)    177.3650         0.010839   
    199. D(P  19,O  18,C  17,H  40)     49.7800         0.019294   
    200. D(P  19,O  18,C  17,H  39)    -69.4645         0.019294   
    201. D(P  19,O  18,C  17,C  15)    171.0969         0.019294   
    202. D(O  22,P  19,O  18,C  17)    -76.4263         0.013224   
    203. D(O  21,P  19,O  18,C  17)    176.0540         0.013224   
    204. D(O  20,P  19,O  18,C  17)     49.1125         0.013224   
    205. D(H  41,O  21,P  19,O  22)     83.5816         0.013773   
    206. D(H  41,O  21,P  19,O  20)    -38.5170         0.013773   
    207. D(H  41,O  21,P  19,O  18)   -167.2491         0.013773   
    208. D(H  42,O  22,P  19,O  21)   -151.6005         0.013620   
    209. D(H  42,O  22,P  19,O  20)    -28.8555         0.013620   
    210. D(H  42,O  22,P  19,O  18)     99.0956         0.013620   
    211. D(O  25,C  23,C  10,C  12)    149.0308         0.009209   
    212. D(O  25,C  23,C  10,O  11)     28.4446         0.009209   
    213. D(O  25,C  23,C  10,C   2)    -90.4326         0.009209   
    214. D(O  24,C  23,C  10,C  12)    -29.1251         0.009209   
    215. D(O  24,C  23,C  10,O  11)   -149.7112         0.009209   
    216. D(O  24,C  23,C  10,C   2)     91.4116         0.009209   
    217. D(H  43,O  25,C  23,O  24)      0.6941         0.030553   
    218. D(H  43,O  25,C  23,C  10)   -177.6219         0.030553   
    -----------------------------------------------------------------

Number of atoms                         .... 44
Number of degrees of freedom            .... 218

         *************************************************************
         *                GEOMETRY OPTIMIZATION CYCLE   1            *
         *************************************************************
---------------------------------
CARTESIAN COORDINATES (ANGSTROEM)
---------------------------------
  O    -3.930900    1.592800    1.320500
  C    -2.885900    0.937300    1.269200
  C    -2.472500    0.097800    0.052900
  O    -2.945300    0.761200   -1.129500
  C    -3.218700   -1.246500    0.209700
  O    -4.617000   -1.030300    0.001800
  P    -5.661800   -1.347000    1.170800
  O    -7.096700   -1.103500    0.863300
  O    -5.342000   -2.855600    1.582400
  O    -5.114100   -0.535000    2.428700
  C    -0.917300   -0.030200    0.022600
  O    -0.477800   -0.559600    1.281600
  C    -0.243900    1.347100   -0.225700
  C     1.217400    1.535100    0.228100
  O     1.625400    2.860800   -0.137500
  C     2.233200    0.515000   -0.313600
  O     1.957400   -0.789600    0.221500
  C     3.673900    0.887700    0.058800
  O     4.523800   -0.143800   -0.432100
  P     6.099600    0.115900   -0.363200
  O     6.642800    0.592300    0.937300
  O     6.761000   -1.238600   -0.877700
  O     6.397500    1.122100   -1.563500
  C    -0.545100   -0.976800   -1.145000
  O    -0.292800   -0.669000   -2.298400
  O    -0.475000   -2.273400   -0.768500
  H    -2.242000    0.864700    2.162600
  H    -3.923700    0.746500   -1.072400
  H    -3.025800   -1.709700    1.183300
  H    -2.931000   -1.953500   -0.571300
  H    -6.055500   -3.207900    2.144200
  H    -5.239000    0.431300    2.292100
  H     0.415000   -0.944300    1.112600
  H    -0.332200    1.627600   -1.284300
  H    -0.810900    2.127600    0.299900
  H     1.235800    1.495700    1.324400
  H     1.362300    3.021100   -1.062600
  H     2.159200    0.444600   -1.405000
  H     2.748700   -1.323900   -0.004600
  H     3.792500    0.933900    1.146300
  H     3.967300    1.845100   -0.382700
  H     7.716200   -1.260700   -0.689000
  H     6.464900    2.042300   -1.249900
  H    -0.197200   -2.746800   -1.581500

----------------------------
CARTESIAN COORDINATES (A.U.)
----------------------------
  NO LB    ZA    FRAG    MASS        X           Y           Z
   0 O   8.0000    0    15.999   -7.428324    3.009956    2.495383
   1 C   6.0000    0    12.011   -5.453561    1.771240    2.398440
   2 C   6.0000    0    12.011   -4.672348    0.184815    0.099967
   3 O   8.0000    0    15.999   -5.565810    1.438460   -2.134446
   4 C   6.0000    0    12.011   -6.082462   -2.355544    0.396276
   5 O   8.0000    0    15.999   -8.724866   -1.946985    0.003402
   6 P  15.0000    0    30.974  -10.699251   -2.545461    2.212491
   7 O   8.0000    0    15.999  -13.410819   -2.085313    1.631401
   8 O   8.0000    0    15.999  -10.094917   -5.396302    2.990303
   9 O   8.0000    0    15.999   -9.664248   -1.011003    4.589578
  10 C   6.0000    0    12.011   -1.733446   -0.057070    0.042708
  11 O   8.0000    0    15.999   -0.902911   -1.057491    2.421873
  12 C   6.0000    0    12.011   -0.460904    2.545650   -0.426511
  13 C   6.0000    0    12.011    2.300553    2.900919    0.431047
  14 O   8.0000    0    15.999    3.071561    5.406129   -0.259837
  15 C   6.0000    0    12.011    4.220136    0.973209   -0.592618
  16 O   8.0000    0    15.999    3.698950   -1.492128    0.418574
  17 C   6.0000    0    12.011    6.942665    1.677510    0.111116
  18 O   8.0000    0    15.999    8.548743   -0.271743   -0.816551
  19 P  15.0000    0    30.974   11.526574    0.219019   -0.686349
  20 O   8.0000    0    15.999   12.553073    1.119285    1.771240
  21 O   8.0000    0    15.999   12.776438   -2.340615   -1.658613
  22 O   8.0000    0    15.999   12.089523    2.120462   -2.954587
  23 C   6.0000    0    12.011   -1.030090   -1.845884   -2.163736
  24 O   8.0000    0    15.999   -0.553312   -1.264227   -4.343347
  25 O   8.0000    0    15.999   -0.897620   -4.296103   -1.452255
  26 H   1.0000    0     1.008   -4.236766    1.634046    4.086722
  27 H   1.0000    0     1.008   -7.414718    1.410681   -2.026542
  28 H   1.0000    0     1.008   -5.717933   -3.230865    2.236113
  29 H   1.0000    0     1.008   -5.538787   -3.691580   -1.079601
  30 H   1.0000    0     1.008  -11.443237   -6.062052    4.051951
  31 H   1.0000    0     1.008   -9.900275    0.815039    4.331441
  32 H   1.0000    0     1.008    0.784236   -1.784468    2.102509
  33 H   1.0000    0     1.008   -0.627767    3.075718   -2.426975
  34 H   1.0000    0     1.008   -1.532379    4.020581    0.566729
  35 H   1.0000    0     1.008    2.335324    2.826463    2.502753
  36 H   1.0000    0     1.008    2.574374    5.709052   -2.008023
  37 H   1.0000    0     1.008    4.080297    0.840172   -2.655065
  38 H   1.0000    0     1.008    5.194290   -2.501808   -0.008693
  39 H   1.0000    0     1.008    7.166786    1.764815    2.166193
  40 H   1.0000    0     1.008    7.497110    3.486734   -0.723198
  41 H   1.0000    0     1.008   14.581505   -2.382378   -1.302021
  42 H   1.0000    0     1.008   12.216890    3.859388   -2.361969
  43 H   1.0000    0     1.008   -0.372654   -5.190700   -2.988602

      -----------------------------------------------------------      
     |                   =====================                   |     
     |                           x T B                           |     
     |                   =====================                   |     
     |                         S. Grimme                         |     
     |          Mulliken Center for Theoretical Chemistry        |     
     |                    University of Bonn                     |     
      -----------------------------------------------------------      

   * xtb version 6.5.1 (579679a) compiled by 'ehlert@majestix' on 2022-07-11

   xtb is free software: you can redistribute it and/or modify it under
   the terms of the GNU Lesser General Public License as published by
   the Free Software Foundation, either version 3 of the License, or
   (at your option) any later version.
   
   xtb is distributed in the hope that it will be useful,
   but WITHOUT ANY WARRANTY; without even the implied warranty of
   MERCHANTABILITY or FITNESS FOR A PARTICULAR PURPOSE.  See the
   GNU Lesser General Public License for more details.
   
   Cite this work as:
   * C. Bannwarth, E. Caldeweyher, S. Ehlert, A. Hansen, P. Pracht,
     J. Seibert, S. Spicher, S. Grimme, WIREs Comput. Mol. Sci., 2020, 11,
     e01493. DOI: 10.1002/wcms.1493
   
   for GFN2-xTB:
   * C. Bannwarth, S. Ehlert and S. Grimme., J. Chem. Theory Comput., 2019,
     15, 1652-1671. DOI: 10.1021/acs.jctc.8b01176
   for GFN1-xTB:
   * S. Grimme, C. Bannwarth, P. Shushkov, J. Chem. Theory Comput., 2017,
     13, 1989-2009. DOI: 10.1021/acs.jctc.7b00118
   for GFN0-xTB:
   * P. Pracht, E. Caldeweyher, S. Ehlert, S. Grimme, ChemRxiv, 2019, preprint.
     DOI: 10.26434/chemrxiv.8326202.v1
   for GFN-FF:
   * S. Spicher and S. Grimme, Angew. Chem. Int. Ed., 2020, 59, 15665-15673.
     DOI: 10.1002/anie.202004239
   
   for ALPB and GBSA implicit solvation:
   * S. Ehlert, M. Stahn, S. Spicher, S. Grimme, J. Chem. Theory Comput.,
     2021, 17, 4250-4261. DOI: 10.1021/acs.jctc.1c00471
   
   for DFT-D4:
   * E. Caldeweyher, C. Bannwarth and S. Grimme, J. Chem. Phys., 2017,
     147, 034112. DOI: 10.1063/1.4993215
   * E. Caldeweyher, S. Ehlert, A. Hansen, H. Neugebauer, S. Spicher,
     C. Bannwarth and S. Grimme, J. Chem. Phys., 2019, 150, 154122.
     DOI: 10.1063/1.5090222
   * E. Caldeweyher, J.-M. Mewes, S. Ehlert and S. Grimme, Phys. Chem. Chem. Phys.
     2020, 22, 8499-8512. DOI: 10.1039/D0CP00502A
   
   for sTDA-xTB:
   * S. Grimme and C. Bannwarth, J. Chem. Phys., 2016, 145, 054103.
     DOI: 10.1063/1.4959605
   
   in the mass-spec context:
   * V. Asgeirsson, C. Bauer and S. Grimme, Chem. Sci., 2017, 8, 4879.
     DOI: 10.1039/c7sc00601b
   * J. Koopman and S. Grimme, ACS Omega 2019, 4, 12, 15120-15133.
     DOI: 10.1021/acsomega.9b02011
   
   for metadynamics refer to:
   * S. Grimme, J. Chem. Theory Comput., 2019, 155, 2847-2862
     DOI: 10.1021/acs.jctc.9b00143
   
   for SPH calculations refer to:
   * S. Spicher and S. Grimme, J. Chem. Theory Comput., 2021, 17, 1701-1714
     DOI: 10.1021/acs.jctc.0c01306
   
   with help from (in alphabetical order)
   P. Atkinson, C. Bannwarth, F. Bohle, G. Brandenburg, E. Caldeweyher
   M. Checinski, S. Dohm, S. Ehlert, S. Ehrlich, I. Gerasimov, C. Hölzer
   A. Katbashev, J. Koopman, C. Lavigne, S. Lehtola, F. März, M. Müller,
   F. Musil, H. Neugebauer, J. Pisarek, C. Plett, P. Pracht, F. Pultar,
   J. Seibert, P. Shushkov, S. Spicher, M. Stahn, M. Steiner, T. Strunk,
   J. Stückrath, T. Rose, and J. Unsleber
   
 * started run on 2023/12/07 at 00:17:38.672     

           -------------------------------------------------
          |                Calculation Setup                |
           -------------------------------------------------

          program call               : otool_xtb /tmp/33_XTB.xyz --grad -c 0 -u 0 -P 1 --namespace /tmp/33 --input /tmp/33_XTB.input.tmp --acc 1.000000
          calculation namespace      : /tmp/33
          coordinate file            : /tmp/33_XTB.xyz
          omp threads                :                     1

   ID    Z sym.   atoms
    1    8 O      1, 4, 6, 8-10, 12, 15, 17, 19, 21-23, 25, 26
    2    6 C      2, 3, 5, 11, 13, 14, 16, 18, 24
    3   15 P      7, 20
    4    1 H      27-44

           -------------------------------------------------
          |                 G F N 2 - x T B                 |
           -------------------------------------------------

        Reference                      10.1021/acs.jctc.8b01176
      * Hamiltonian:
        H0-scaling (s, p, d)           1.850000    2.230000    2.230000
        zeta-weighting                 0.500000
      * Dispersion:
        s8                             2.700000
        a1                             0.520000
        a2                             5.000000
        s9                             5.000000
      * Repulsion:
        kExp                           1.500000    1.000000
        rExp                           1.000000
      * Coulomb:
        alpha                          2.000000
        third order                    shell-resolved
        anisotropic                    true
        a3                             3.000000
        a5                             4.000000
        cn-shift                       1.200000
        cn-exp                         4.000000
        max-rad                        5.000000


          ...................................................
          :                      SETUP                      :
          :.................................................:
          :  # basis functions                 134          :
          :  # atomic orbitals                 132          :
          :  # shells                           72          :
          :  # electrons                       154          :
          :  max. iterations                   250          :
          :  Hamiltonian                  GFN2-xTB          :
          :  restarted?                      false          :
          :  GBSA solvation                  false          :
          :  PC potential                    false          :
          :  electronic temp.          300.0000000     K    :
          :  accuracy                    1.0000000          :
          :  -> integral cutoff          0.2500000E+02      :
          :  -> integral neglect         0.1000000E-07      :
          :  -> SCF convergence          0.1000000E-05 Eh   :
          :  -> wf. convergence          0.1000000E-03 e    :
          :  Broyden damping             0.4000000          :
          ...................................................

 iter      E             dE          RMSdq      gap      omega  full diag
   1    -95.1583760 -0.951584E+02  0.689E+00    3.59       0.0  T
   2    -95.3011290 -0.142753E+00  0.391E+00    2.86       1.0  T
   3    -95.3126381 -0.115091E-01  0.143E+00    3.13       1.0  T
   4    -95.3374818 -0.248438E-01  0.607E-01    2.81       1.0  T
   5    -95.3395659 -0.208412E-02  0.257E-01    2.98       1.0  T
   6    -95.3401059 -0.539946E-03  0.961E-02    2.90       1.0  T
   7    -95.3401912 -0.852708E-04  0.524E-02    2.92       1.0  T
   8    -95.3402033 -0.121157E-04  0.149E-02    2.92       1.0  T
   9    -95.3402049 -0.161496E-05  0.694E-03    2.92       2.2  T
  10    -95.3402052 -0.319353E-06  0.212E-03    2.92       7.1  T
  11    -95.3402052 -0.360162E-07  0.829E-04    2.92      18.2  T
  12    -95.3402052 -0.261824E-08  0.260E-04    2.92      57.9  T

   *** convergence criteria satisfied after 12 iterations ***

         #    Occupation            Energy/Eh            Energy/eV
      -------------------------------------------------------------
         1        2.0000           -0.7700354             -20.9537
       ...           ...                  ...                  ...
        71        2.0000           -0.4465878             -12.1523
        72        2.0000           -0.4447706             -12.1028
        73        2.0000           -0.4430601             -12.0563
        74        2.0000           -0.4391907             -11.9510
        75        2.0000           -0.4367487             -11.8845
        76        2.0000           -0.4351422             -11.8408
        77        2.0000           -0.4189681             -11.4007 (HOMO)
        78                         -0.3117551              -8.4833 (LUMO)
        79                         -0.2740954              -7.4585
        80                         -0.1187758              -3.2321
        81                         -0.1076507              -2.9293
        82                         -0.0608904              -1.6569
       ...                                ...                  ...
       132                          1.2570612              34.2064
      -------------------------------------------------------------
                  HL-Gap            0.1072130 Eh            2.9174 eV
             Fermi-level           -0.3653616 Eh           -9.9420 eV

 SCC (total)                   0 d,  0 h,  0 min,  0.083 sec
 SCC setup                      ...        0 min,  0.000 sec (  0.378%)
 Dispersion                     ...        0 min,  0.000 sec (  0.562%)
 classical contributions        ...        0 min,  0.000 sec (  0.128%)
 integral evaluation            ...        0 min,  0.011 sec ( 13.327%)
 iterations                     ...        0 min,  0.034 sec ( 40.925%)
 molecular gradient             ...        0 min,  0.037 sec ( 44.209%)
 printout                       ...        0 min,  0.000 sec (  0.445%)

         :::::::::::::::::::::::::::::::::::::::::::::::::::::
         ::                     SUMMARY                     ::
         :::::::::::::::::::::::::::::::::::::::::::::::::::::
         :: total energy             -94.753079050614 Eh    ::
         :: gradient norm              0.129620239584 Eh/a0 ::
         :: HOMO-LUMO gap              2.917413490341 eV    ::
         ::.................................................::
         :: SCC energy               -95.340205243818 Eh    ::
         :: -> isotropic ES            0.380729107639 Eh    ::
         :: -> anisotropic ES         -0.011818878412 Eh    ::
         :: -> anisotropic XC         -0.005320126456 Eh    ::
         :: -> dispersion             -0.047381596072 Eh    ::
         :: repulsion energy           0.586866128083 Eh    ::
         :: add. restraining           0.000000000000 Eh    ::
         :: total charge              -0.000000000000 e     ::
         :::::::::::::::::::::::::::::::::::::::::::::::::::::


Property printout bound to 'properties.out'

           -------------------------------------------------
          | TOTAL ENERGY              -94.753079050614 Eh   |
          | GRADIENT NORM               0.129620239584 Eh/α |
          | HOMO-LUMO GAP               2.917413490341 eV   |
           -------------------------------------------------

------------------------------------------------------------------------
 * finished run on 2023/12/07 at 00:17:38.773     
------------------------------------------------------------------------
 total:
 * wall-time:     0 d,  0 h,  0 min,  0.101 sec
 *  cpu-time:     0 d,  0 h,  0 min,  0.100 sec
 * ratio c/w:     0.990 speedup
 SCF:
 * wall-time:     0 d,  0 h,  0 min,  0.083 sec
 *  cpu-time:     0 d,  0 h,  0 min,  0.084 sec
 * ratio c/w:     1.012 speedup


-------------------------   --------------------
FINAL SINGLE POINT ENERGY       -94.753079050610
-------------------------   --------------------

------------------------------------------------------------------------------
                         ORCA GEOMETRY RELAXATION STEP
------------------------------------------------------------------------------

Reading the OPT-File                    .... done
Getting information on internals        .... done
Copying old internal coords+grads       .... done
Making the new internal coordinates     .... (new redundants).... done
Validating the new internal coordinates .... (new redundants).... done
Calculating the B-matrix                .... done
Calculating the G,G- and P matrices     .... done
Transforming gradient to internals      .... done
Projecting the internal gradient        .... done
Number of atoms                         ....  44
Number of internal coordinates          .... 218
Current Energy                          ....   -94.753079051 Eh
Current gradient norm                   ....     0.129620240 Eh/bohr
Maximum allowed component of the step   ....  0.300
Current trust radius                    ....  0.300
Evaluating the initial hessian          ....  (Almloef) done
Projecting the Hessian                  .... done
Forming the augmented Hessian           .... done
Diagonalizing the augmented Hessian     .... done
Last element of RFO vector              ....  0.924410833
Lowest eigenvalues of augmented Hessian:
 -0.026610380  0.009049489  0.009220216  0.009794486  0.010046144
Length of the computed step             ....  0.412585206
Warning: the length of the step is outside the trust region - taking restricted step instead
The input lambda is                     ....    -0.026610
   iter:   1  x=   -0.039602  g=    6.175170 f(x)=     0.080227
   iter:   2  x=   -0.048972  g=    2.788329 f(x)=     0.026125
   iter:   3  x=   -0.051808  g=    1.802167 f(x)=     0.005112
   iter:   4  x=   -0.051988  g=    1.604803 f(x)=     0.000288
   iter:   5  x=   -0.051988  g=    1.593417 f(x)=     0.000001
   iter:   6  x=   -0.051988  g=    1.593377 f(x)=     0.000000
   iter:   7  x=   -0.051988  g=    1.593377 f(x)=    -0.000000
The output lambda is                    ....    -0.051988 (7 iterations)
The final length of the internal step   ....  0.300000000
Converting the step to cartesian space:
 Initial RMS(Int)=    0.0203185638
Transforming coordinates:
 Iter   0:  RMS(Cart)=    0.1202794842 RMS(Int)=    0.0200206398
 Iter   1:  RMS(Cart)=    0.0040457239 RMS(Int)=    0.0016449282
 Iter   2:  RMS(Cart)=    0.0002690819 RMS(Int)=    0.0000638915
 Iter   3:  RMS(Cart)=    0.0000225705 RMS(Int)=    0.0000101302
 Iter   4:  RMS(Cart)=    0.0000016920 RMS(Int)=    0.0000005155
 Iter   5:  RMS(Cart)=    0.0000001492 RMS(Int)=    0.0000000689
 Iter   6:  RMS(Cart)=    0.0000000119 RMS(Int)=    0.0000000044
done
Storing new coordinates                 .... done

                                .--------------------.
          ----------------------|Geometry convergence|-------------------------
          Item                value                   Tolerance       Converged
          ---------------------------------------------------------------------
          RMS gradient        0.0076006170            0.0001000000      NO
          MAX gradient        0.0480534849            0.0003000000      NO
          RMS step            0.0203185638            0.0020000000      NO
          MAX step            0.0648494428            0.0040000000      NO
          ........................................................
          Max(Bonds)      0.0244      Max(Angles)    2.70
          Max(Dihed)        3.72      Max(Improp)    0.00
          ---------------------------------------------------------------------

The optimization has not yet converged - more geometry cycles are needed


    ---------------------------------------------------------------------------
                         Redundant Internal Coordinates
                            (Angstroem and degrees)

        Definition                    Value    dE/dq     Step     New-Value
    ----------------------------------------------------------------------------
     1. B(C   1,O   0)                1.2346  0.048053 -0.0244    1.2102   
     2. B(C   2,C   1)                1.5346  0.010279 -0.0130    1.5216   
     3. B(O   3,C   2)                1.4359  0.020837 -0.0210    1.4149   
     4. B(C   4,C   2)                1.5455  0.001357 -0.0018    1.5437   
     5. B(O   5,C   4)                1.4301  0.007839 -0.0078    1.4224   
     6. B(P   6,O   5)                1.5995  0.001045 -0.0006    1.5989   
     7. B(O   7,P   6)                1.4875  0.035637 -0.0138    1.4737   
     8. B(O   8,P   6)                1.5961  0.004640 -0.0026    1.5935   
     9. B(O   9,P   6)                1.5942 -0.002630  0.0015    1.5957   
    10. B(C  10,C   2)                1.5608  0.014557 -0.0200    1.5408   
    11. B(O  11,C  10)                1.4347  0.021473 -0.0216    1.4132   
    12. B(C  12,C  10)                1.5531  0.010767 -0.0144    1.5387   
    13. B(C  13,C  12)                1.5416  0.005048 -0.0065    1.5351   
    14. B(O  14,C  13)                1.4344  0.017557 -0.0176    1.4168   
    15. B(C  15,C  13)                1.5381  0.000984 -0.0013    1.5369   
    16. B(O  16,C  15)                1.4368  0.011843 -0.0120    1.4248   
    17. B(C  17,C  15)                1.5340  0.005118 -0.0064    1.5276   
    18. B(O  18,C  17)                1.4238  0.001283 -0.0012    1.4226   
    19. B(P  19,O  18)                1.5985  0.005661 -0.0032    1.5953   
    20. B(O  20,P  19)                1.4877  0.026725 -0.0104    1.4774   
    21. B(O  21,P  19)                1.5927  0.012309 -0.0069    1.5859   
    22. B(O  22,P  19)                1.5943 -0.005549  0.0031    1.5975   
    23. B(C  23,C  10)                1.5485  0.012792 -0.0169    1.5316   
    24. B(O  24,C  23)                1.2201  0.033793 -0.0163    1.2038   
    25. B(O  25,C  23)                1.3520  0.010874 -0.0083    1.3437   
    26. B(H  26,C   1)                1.1036  0.003458 -0.0046    1.0990   
    27. B(H  27,O   3)                0.9802  0.009604 -0.0095    0.9707   
    28. B(H  28,C   4)                1.0953  0.002631 -0.0034    1.0919   
    29. B(H  29,C   4)                1.0921 -0.000636  0.0008    1.0929   
    30. B(H  30,O   8)                0.9741  0.015911 -0.0154    0.9586   
    31. B(H  31,O   9)                0.9839  0.018560 -0.0186    0.9653   
    32. B(H  32,O  11)                0.9867  0.012101 -0.0122    0.9745   
    33. B(H  33,C  12)                1.0987  0.002514 -0.0033    1.0954   
    34. B(H  34,C  12)                1.0986  0.002195 -0.0029    1.0957   
    35. B(H  35,C  13)                1.0972  0.001497 -0.0020    1.0952   
    36. B(H  36,O  14)                0.9751  0.008503 -0.0083    0.9668   
    37. B(H  37,C  15)                1.0962 -0.003071  0.0040    1.1002   
    38. B(H  38,O  16)                0.9812  0.011134 -0.0111    0.9701   
    39. B(H  39,C  17)                1.0949  0.000249 -0.0003    1.0946   
    40. B(H  40,C  17)                1.0944  0.001209 -0.0016    1.0928   
    41. B(H  41,O  21)                0.9739  0.016104 -0.0156    0.9583   
    42. B(H  42,O  22)                0.9745  0.015824 -0.0154    0.9591   
    43. B(H  43,O  25)                0.9809  0.006522 -0.0065    0.9745   
    44. A(O   0,C   1,C   2)          123.46  0.005093   -0.58    122.88   
    45. A(O   0,C   1,H  26)          119.68 -0.007087    0.98    120.66   
    46. A(C   2,C   1,H  26)          116.64  0.001857   -0.25    116.39   
    47. A(O   3,C   2,C   4)          109.05 -0.003119    0.75    109.80   
    48. A(C   1,C   2,C  10)          109.19 -0.000187   -0.12    109.07   
    49. A(C   1,C   2,C   4)          105.39 -0.001535    0.63    106.02   
    50. A(C   4,C   2,C  10)          114.31  0.003595   -1.13    113.19   
    51. A(O   3,C   2,C  10)          110.49  0.003000   -0.98    109.51   
    52. A(C   1,C   2,O   3)          108.13 -0.002280    1.05    109.18   
    53. A(C   2,O   3,H  27)          105.89 -0.001455    0.21    106.10   
    54. A(O   5,C   4,H  29)          104.57 -0.004231    0.90    105.47   
    55. A(C   2,C   4,H  29)          111.31  0.006284   -1.16    110.14   
    56. A(C   2,C   4,O   5)          109.02 -0.000741    0.13    109.14   
    57. A(C   2,C   4,H  28)          111.90 -0.000255   -0.08    111.82   
    58. A(O   5,C   4,H  28)          111.43  0.000912   -0.10    111.33   
    59. A(H  28,C   4,H  29)          108.39 -0.002101    0.35    108.75   
    60. A(C   4,O   5,P   6)          120.16 -0.003280    0.36    120.53   
    61. A(O   8,P   6,O   9)          102.07  0.005828   -0.48    101.59   
    62. A(O   7,P   6,O   8)          113.66 -0.007297    0.57    114.23   
    63. A(O   5,P   6,O   8)          104.17  0.007582   -1.11    103.05   
    64. A(O   7,P   6,O   9)          114.28 -0.001508    0.48    114.76   
    65. A(O   5,P   6,O   9)          104.56 -0.014295    1.73    106.29   
    66. A(O   5,P   6,O   7)          116.53  0.009514   -1.16    115.37   
    67. A(P   6,O   8,H  30)          110.11  0.003806   -0.47    109.64   
    68. A(P   6,O   9,H  31)          110.31 -0.000885    0.11    110.42   
    69. A(O  11,C  10,C  23)          111.25  0.000644    0.25    111.50   
    70. A(O  11,C  10,C  12)          109.55 -0.008119    1.86    111.41   
    71. A(C  12,C  10,C  23)          108.50  0.002393   -0.14    108.36   
    72. A(C   2,C  10,C  12)          111.25  0.005062   -1.29    109.96   
    73. A(C   2,C  10,C  23)          107.71 -0.005715    0.83    108.55   
    74. A(C   2,C  10,O  11)          108.57  0.005863   -1.54    107.03   
    75. A(C  10,O  11,H  32)          105.71 -0.004519    0.65    106.36   
    76. A(C  13,C  12,H  34)          105.17 -0.005110    1.20    106.37   
    77. A(C  10,C  12,H  34)          109.25  0.002688   -0.49    108.76   
    78. A(C  13,C  12,H  33)          109.19 -0.000920   -0.08    109.11   
    79. A(C  10,C  12,H  33)          110.22  0.000926   -0.63    109.59   
    80. A(H  33,C  12,H  34)          103.78 -0.002428    1.19    104.97   
    81. A(C  10,C  12,C  13)          118.17  0.003823   -0.84    117.33   
    82. A(C  15,C  13,H  35)          108.48 -0.003061    0.69    109.18   
    83. A(C  12,C  13,H  35)          107.80 -0.002865    0.92    108.72   
    84. A(O  14,C  13,C  15)          109.59  0.001590   -0.64    108.95   
    85. A(C  12,C  13,C  15)          116.20  0.006166   -1.03    115.17   
    86. A(C  12,C  13,O  14)          107.90 -0.004444    0.52    108.42   
    87. A(O  14,C  13,H  35)          106.44  0.002364   -0.41    106.04   
    88. A(C  13,O  14,H  36)          108.48  0.001022   -0.15    108.34   
    89. A(C  17,C  15,H  37)          108.71 -0.001423    0.12    108.83   
    90. A(O  16,C  15,H  37)          107.43  0.000255    0.26    107.69   
    91. A(C  13,C  15,H  37)          110.41  0.000008   -0.18    110.22   
    92. A(O  16,C  15,C  17)          108.09 -0.001336    0.28    108.37   
    93. A(C  13,C  15,C  17)          111.94  0.004586   -0.88    111.06   
    94. A(C  13,C  15,O  16)          110.14 -0.002277    0.44    110.58   
    95. A(C  15,O  16,H  38)          104.70 -0.004179    0.60    105.30   
    96. A(C  15,C  17,O  18)          107.51  0.006293   -0.83    106.68   
    97. A(H  39,C  17,H  40)          109.56  0.000762   -0.14    109.41   
    98. A(C  15,C  17,H  40)          111.49  0.001059   -0.35    111.15   
    99. A(O  18,C  17,H  39)          107.96 -0.003658    0.69    108.65   
   100. A(C  15,C  17,H  39)          110.68 -0.000301   -0.07    110.61   
   101. A(O  18,C  17,H  40)          109.55 -0.004313    0.74    110.29   
   102. A(C  17,O  18,P  19)          117.12  0.005927   -0.65    116.47   
   103. A(O  18,P  19,O  22)          104.73 -0.006047    0.57    105.30   
   104. A(O  20,P  19,O  21)          113.77 -0.010284    1.16    114.93   
   105. A(O  18,P  19,O  21)          104.91  0.020581   -2.70    102.20   
   106. A(O  18,P  19,O  20)          116.72 -0.000030   -0.17    116.55   
   107. A(O  21,P  19,O  22)          102.47 -0.004754    0.63    103.10   
   108. A(O  20,P  19,O  22)          112.82  0.001122    0.42    113.24   
   109. A(P  19,O  21,H  41)          111.35  0.007596   -0.93    110.42   
   110. A(P  19,O  22,H  42)          111.51  0.001077   -0.13    111.37   
   111. A(O  24,C  23,O  25)          119.63 -0.010986    1.24    120.87   
   112. A(C  10,C  23,O  25)          112.88  0.000846   -0.06    112.82   
   113. A(C  10,C  23,O  24)          127.46  0.010120   -1.16    126.30   
   114. A(C  23,O  25,H  43)          104.28 -0.013277    1.81    106.10   
   115. D(C  10,C   2,C   1,O   0)    153.73  0.001344   -1.44    152.28   
   116. D(O   3,C   2,C   1,O   0)     33.47 -0.000817   -0.81     32.66   
   117. D(C  10,C   2,C   1,H  26)    -31.67 -0.000733    0.46    -31.21   
   118. D(C   4,C   2,C   1,H  26)     91.55  0.002548   -0.58     90.97   
   119. D(C   4,C   2,C   1,O   0)    -83.05  0.004625   -2.48    -85.53   
   120. D(O   3,C   2,C   1,H  26)   -151.93 -0.002894    1.10   -150.84   
   121. D(H  27,O   3,C   2,C   1)    -64.60  0.001502   -0.52    -65.12   
   122. D(H  27,O   3,C   2,C   4)     49.51 -0.003101    1.15     50.67   
   123. D(H  27,O   3,C   2,C  10)    175.96  0.001369   -0.44    175.51   
   124. D(H  28,C   4,C   2,C   1)    -54.09 -0.000851    0.01    -54.08   
   125. D(H  28,C   4,C   2,C  10)     65.81 -0.000051   -0.36     65.45   
   126. D(H  28,C   4,C   2,O   3)   -169.97  0.004063   -1.88   -171.85   
   127. D(O   5,C   4,C   2,C  10)   -170.48  0.000410   -0.45   -170.92   
   128. D(O   5,C   4,C   2,C   1)     69.63 -0.000390   -0.07     69.55   
   129. D(O   5,C   4,C   2,O   3)    -46.26  0.004523   -1.97    -48.23   
   130. D(H  29,C   4,C   2,C  10)    -55.65 -0.001628    0.07    -55.58   
   131. D(H  29,C   4,C   2,O   3)     68.57  0.002485   -1.45     67.12   
   132. D(H  29,C   4,C   2,C   1)   -175.54 -0.002429    0.44   -175.10   
   133. D(P   6,O   5,C   4,H  28)      4.85  0.005426   -3.59      1.26   
   134. D(P   6,O   5,C   4,H  29)    121.74  0.000973   -2.71    119.03   
   135. D(P   6,O   5,C   4,C   2)   -119.14  0.005653   -3.51   -122.65   
   136. D(O   8,P   6,O   5,C   4)    -53.45  0.000455   -0.93    -54.38   
   137. D(O   7,P   6,O   5,C   4)   -179.50 -0.002517   -0.00   -179.51   
   138. D(O   9,P   6,O   5,C   4)     53.31  0.004543   -1.25     52.07   
   139. D(H  30,O   8,P   6,O   9)     84.31  0.002399    0.31     84.61   
   140. D(H  30,O   8,P   6,O   7)    -39.24  0.004342   -0.28    -39.52   
   141. D(H  30,O   8,P   6,O   5)   -167.08 -0.008672    1.66   -165.43   
   142. D(H  31,O   9,P   6,O   8)    178.99  0.002580    0.62    179.61   
   143. D(H  31,O   9,P   6,O   5)     70.68 -0.003160    1.45     72.14   
   144. D(H  31,O   9,P   6,O   7)    -57.88 -0.003250    1.27    -56.61   
   145. D(O  11,C  10,C   2,C   1)     54.82 -0.001124    0.23     55.05   
   146. D(C  23,C  10,C   2,O   3)    -65.80 -0.001425    0.75    -65.04   
   147. D(C  23,C  10,C   2,C   1)    175.40 -0.000322    0.14    175.54   
   148. D(C  12,C  10,C   2,C   4)    176.45  0.001787   -0.27    176.18   
   149. D(C  12,C  10,C   2,O   3)     53.00  0.000879    0.35     53.35   
   150. D(C  12,C  10,C   2,C   1)    -65.81  0.001982   -0.27    -66.07   
   151. D(O  11,C  10,C   2,C   4)    -62.92 -0.001319    0.23    -62.70   
   152. D(C  23,C  10,C   2,C   4)     57.65 -0.000517    0.13     57.79   
   153. D(O  11,C  10,C   2,O   3)    173.63 -0.002227    0.85    174.47   
   154. D(H  32,O  11,C  10,C  23)     40.42 -0.000678    1.18     41.59   
   155. D(H  32,O  11,C  10,C  12)    -79.55  0.001239   -0.02    -79.57   
   156. D(H  32,O  11,C  10,C   2)    158.78 -0.003645    1.38    160.16   
   157. D(H  34,C  12,C  10,O  11)    -82.90 -0.004433    3.02    -79.88   
   158. D(H  34,C  12,C  10,C  23)    155.47 -0.001746    1.66    157.13   
   159. D(H  34,C  12,C  10,C   2)     37.15  0.000778    1.49     38.64   
   160. D(H  33,C  12,C  10,C  23)     42.05 -0.000830    0.85     42.90   
   161. D(H  33,C  12,C  10,O  11)    163.68 -0.003517    2.21    165.89   
   162. D(H  33,C  12,C  10,C   2)    -76.27  0.001694    0.68    -75.59   
   163. D(C  13,C  12,C  10,C  23)    -84.43 -0.003657    2.26    -82.17   
   164. D(C  13,C  12,C  10,O  11)     37.20 -0.006344    3.62     40.82   
   165. D(C  13,C  12,C  10,C   2)    157.25 -0.001134    2.09    159.34   
   166. D(H  35,C  13,C  12,H  34)     55.24  0.000879    0.90     56.15   
   167. D(H  35,C  13,C  12,C  10)    -66.95 -0.001053    1.14    -65.82   
   168. D(C  15,C  13,C  12,H  34)    177.18 -0.001136    1.82    179.00   
   169. D(C  15,C  13,C  12,H  33)    -71.99 -0.006723    3.72    -68.27   
   170. D(C  15,C  13,C  12,C  10)     54.98 -0.003068    2.06     57.04   
   171. D(O  14,C  13,C  12,H  34)    -59.34  0.001790    0.65    -58.69   
   172. D(H  35,C  13,C  12,H  33)    166.07 -0.004708    2.79    168.87   
   173. D(O  14,C  13,C  12,H  33)     51.49 -0.003797    2.55     54.03   
   174. D(O  14,C  13,C  12,C  10)    178.46 -0.000142    0.89    179.35   
   175. D(H  36,O  14,C  13,H  35)   -162.75  0.001316   -0.60   -163.35   
   176. D(H  36,O  14,C  13,C  15)     80.13  0.002806   -0.86     79.26   
   177. D(H  36,O  14,C  13,C  12)    -47.27 -0.002953    0.51    -46.76   
   178. D(H  37,C  15,C  13,H  35)    173.48 -0.002324    1.07    174.55   
   179. D(H  37,C  15,C  13,C  12)     51.91 -0.000449    0.03     51.94   
   180. D(C  17,C  15,C  13,H  35)    -65.27 -0.001016    0.50    -64.77   
   181. D(C  17,C  15,C  13,O  14)     50.57  0.000963    0.05     50.61   
   182. D(C  17,C  15,C  13,C  12)    173.16  0.000860   -0.54    172.62   
   183. D(O  16,C  15,C  13,H  35)     55.01 -0.001227    0.58     55.59   
   184. D(H  37,C  15,C  13,O  14)    -70.68 -0.000346    0.61    -70.07   
   185. D(O  16,C  15,C  13,O  14)    170.84  0.000751    0.13    170.97   
   186. D(O  16,C  15,C  13,C  12)    -66.57  0.000648   -0.46    -67.03   
   187. D(H  38,O  16,C  15,H  37)     71.95 -0.000922    0.54     72.49   
   188. D(H  38,O  16,C  15,C  17)    -45.19  0.001308    0.11    -45.08   
   189. D(H  38,O  16,C  15,C  13)   -167.77 -0.002073    0.74   -167.03   
   190. D(H  40,C  17,C  15,H  37)     59.68  0.000226   -0.09     59.60   
   191. D(H  40,C  17,C  15,O  16)    175.99 -0.000950    0.44    176.44   
   192. D(H  40,C  17,C  15,C  13)    -62.54 -0.001804    0.63    -61.91   
   193. D(H  39,C  17,C  15,H  37)   -178.10  0.001725   -0.56   -178.66   
   194. D(H  39,C  17,C  15,O  16)    -61.79  0.000549   -0.03    -61.82   
   195. D(H  39,C  17,C  15,C  13)     59.68 -0.000305    0.16     59.84   
   196. D(O  18,C  17,C  15,H  37)    -60.41  0.000877   -0.26    -60.67   
   197. D(O  18,C  17,C  15,O  16)     55.90 -0.000299    0.27     56.17   
   198. D(O  18,C  17,C  15,C  13)    177.36 -0.001152    0.46    177.82   
   199. D(P  19,O  18,C  17,H  40)     49.78 -0.002842    0.99     50.77   
   200. D(P  19,O  18,C  17,H  39)    -69.46  0.000852    0.33    -69.14   
   201. D(P  19,O  18,C  17,C  15)    171.10 -0.000260    0.49    171.59   
   202. D(O  22,P  19,O  18,C  17)    -76.43  0.001888   -0.98    -77.40   
   203. D(O  21,P  19,O  18,C  17)    176.05  0.001882   -0.91    175.15   
   204. D(O  20,P  19,O  18,C  17)     49.11 -0.001537   -0.08     49.03   
   205. D(H  41,O  21,P  19,O  22)     83.58 -0.002922    1.41     84.99   
   206. D(H  41,O  21,P  19,O  20)    -38.52  0.004369   -0.15    -38.67   
   207. D(H  41,O  21,P  19,O  18)   -167.25 -0.004466    1.37   -165.88   
   208. D(H  42,O  22,P  19,O  21)   -151.60  0.010066   -0.55   -152.15   
   209. D(H  42,O  22,P  19,O  20)    -28.86 -0.004822    1.49    -27.36   
   210. D(H  42,O  22,P  19,O  18)     99.10 -0.008584    1.97    101.07   
   211. D(O  25,C  23,C  10,C  12)    149.03 -0.005210    2.16    151.19   
   212. D(O  25,C  23,C  10,O  11)     28.44  0.002893   -0.21     28.24   
   213. D(O  25,C  23,C  10,C   2)    -90.43 -0.001084    1.02    -89.42   
   214. D(O  24,C  23,C  10,C  12)    -29.13 -0.004225    1.38    -27.74   
   215. D(O  24,C  23,C  10,O  11)   -149.71  0.003877   -0.99   -150.70   
   216. D(O  24,C  23,C  10,C   2)     91.41 -0.000100    0.24     91.65   
   217. D(H  43,O  25,C  23,O  24)      0.69 -0.000044    0.19      0.89   
   218. D(H  43,O  25,C  23,C  10)   -177.62  0.000443   -0.47   -178.09   
    ----------------------------------------------------------------------------

         *************************************************************
         *                GEOMETRY OPTIMIZATION CYCLE   2            *
         *************************************************************
---------------------------------
CARTESIAN COORDINATES (ANGSTROEM)
---------------------------------
  O    -3.875075    1.687211    1.206913
  C    -2.869391    1.014330    1.229682
  C    -2.435019    0.138606    0.063566
  O    -2.832848    0.749030   -1.149253
  C    -3.176064   -1.204037    0.240277
  O    -4.563363   -1.006775   -0.003811
  P    -5.645255   -1.375869    1.114146
  O    -7.049606   -1.136171    0.736969
  O    -5.309461   -2.896550    1.451713
  O    -5.177128   -0.639674    2.450270
  C    -0.901346   -0.007277    0.087326
  O    -0.552026   -0.499909    1.364965
  C    -0.239762    1.354022   -0.189576
  C     1.217039    1.533942    0.259852
  O     1.637813    2.838535   -0.098418
  C     2.210032    0.513057   -0.317892
  O     1.941645   -0.790257    0.191464
  C     3.648254    0.883113    0.039938
  O     4.478185   -0.142333   -0.492455
  P     6.051638    0.114128   -0.433460
  O     6.600865    0.552064    0.866223
  O     6.635226   -1.256343   -0.977665
  O     6.357339    1.135618   -1.622990
  C    -0.487226   -0.979287   -1.021538
  O    -0.187660   -0.687005   -2.150265
  O    -0.460655   -2.258228   -0.610274
  H    -2.249072    0.964484    2.135520
  H    -3.803504    0.750724   -1.143977
  H    -3.004019   -1.635528    1.228388
  H    -2.845538   -1.918899   -0.517419
  H    -6.035398   -3.285654    1.942237
  H    -5.321823    0.312014    2.378763
  H     0.338310   -0.886000    1.276189
  H    -0.317274    1.589649   -1.256488
  H    -0.817533    2.136078    0.315534
  H     1.255013    1.493571    1.353644
  H     1.372340    3.003212   -1.013334
  H     2.116659    0.469699   -1.413256
  H     2.717675   -1.322319   -0.044907
  H     3.779952    0.911284    1.126219
  H     3.923358    1.851823   -0.384437
  H     7.573019   -1.318208   -0.790410
  H     6.460354    2.031591   -1.296548
  H    -0.158868   -2.781663   -1.374825

----------------------------
CARTESIAN COORDINATES (A.U.)
----------------------------
  NO LB    ZA    FRAG    MASS        X           Y           Z
   0 O   8.0000    0    15.999   -7.322830    3.188367    2.280735
   1 C   6.0000    0    12.011   -5.422364    1.916807    2.323762
   2 C   6.0000    0    12.011   -4.601520    0.261928    0.120123
   3 O   8.0000    0    15.999   -5.353307    1.415461   -2.171774
   4 C   6.0000    0    12.011   -6.001891   -2.275300    0.454058
   5 O   8.0000    0    15.999   -8.623506   -1.902529   -0.007202
   6 P  15.0000    0    30.974  -10.667986   -2.600016    2.105431
   7 O   8.0000    0    15.999  -13.321824   -2.147052    1.392669
   8 O   8.0000    0    15.999  -10.033428   -5.473685    2.743340
   9 O   8.0000    0    15.999   -9.783354   -1.208809    4.630339
  10 C   6.0000    0    12.011   -1.703297   -0.013751    0.165022
  11 O   8.0000    0    15.999   -1.043178   -0.944690    2.579410
  12 C   6.0000    0    12.011   -0.453084    2.558730   -0.358247
  13 C   6.0000    0    12.011    2.299870    2.898730    0.491050
  14 O   8.0000    0    15.999    3.095018    5.364054   -0.185982
  15 C   6.0000    0    12.011    4.176356    0.969536   -0.600729
  16 O   8.0000    0    15.999    3.669178   -1.493370    0.361814
  17 C   6.0000    0    12.011    6.894201    1.668842    0.075472
  18 O   8.0000    0    15.999    8.462543   -0.268971   -0.930604
  19 P  15.0000    0    30.974   11.435939    0.215671   -0.819122
  20 O   8.0000    0    15.999   12.473826    1.043250    1.636925
  21 O   8.0000    0    15.999   12.538759   -2.374144   -1.847518
  22 O   8.0000    0    15.999   12.013630    2.146006   -3.067007
  23 C   6.0000    0    12.011   -0.920723   -1.850585   -1.930427
  24 O   8.0000    0    15.999   -0.354626   -1.298251   -4.063412
  25 O   8.0000    0    15.999   -0.870512   -4.267433   -1.153251
  26 H   1.0000    0     1.008   -4.250130    1.822610    4.035548
  27 H   1.0000    0     1.008   -7.187581    1.418662   -2.161804
  28 H   1.0000    0     1.008   -5.676774   -3.090700    2.321317
  29 H   1.0000    0     1.008   -5.377288   -3.626193   -0.977781
  30 H   1.0000    0     1.008  -11.405249   -6.208985    3.670295
  31 H   1.0000    0     1.008  -10.056788    0.589620    4.495211
  32 H   1.0000    0     1.008    0.639314   -1.674297    2.411648
  33 H   1.0000    0     1.008   -0.599562    3.004001   -2.374418
  34 H   1.0000    0     1.008   -1.544913    4.036602    0.596273
  35 H   1.0000    0     1.008    2.371630    2.822440    2.558017
  36 H   1.0000    0     1.008    2.593346    5.675248   -1.914923
  37 H   1.0000    0     1.008    3.999906    0.887603   -2.670666
  38 H   1.0000    0     1.008    5.135661   -2.498820   -0.084863
  39 H   1.0000    0     1.008    7.143074    1.722077    2.128246
  40 H   1.0000    0     1.008    7.414072    3.499439   -0.726481
  41 H   1.0000    0     1.008   14.310932   -2.491053   -1.493659
  42 H   1.0000    0     1.008   12.208300    3.839151   -2.450121
  43 H   1.0000    0     1.008   -0.300216   -5.256580   -2.598043

      -----------------------------------------------------------      
     |                   =====================                   |     
     |                           x T B                           |     
     |                   =====================                   |     
     |                         S. Grimme                         |     
     |          Mulliken Center for Theoretical Chemistry        |     
     |                    University of Bonn                     |     
      -----------------------------------------------------------      

   * xtb version 6.5.1 (579679a) compiled by 'ehlert@majestix' on 2022-07-11

   xtb is free software: you can redistribute it and/or modify it under
   the terms of the GNU Lesser General Public License as published by
   the Free Software Foundation, either version 3 of the License, or
   (at your option) any later version.
   
   xtb is distributed in the hope that it will be useful,
   but WITHOUT ANY WARRANTY; without even the implied warranty of
   MERCHANTABILITY or FITNESS FOR A PARTICULAR PURPOSE.  See the
   GNU Lesser General Public License for more details.
   
   Cite this work as:
   * C. Bannwarth, E. Caldeweyher, S. Ehlert, A. Hansen, P. Pracht,
     J. Seibert, S. Spicher, S. Grimme, WIREs Comput. Mol. Sci., 2020, 11,
     e01493. DOI: 10.1002/wcms.1493
   
   for GFN2-xTB:
   * C. Bannwarth, S. Ehlert and S. Grimme., J. Chem. Theory Comput., 2019,
     15, 1652-1671. DOI: 10.1021/acs.jctc.8b01176
   for GFN1-xTB:
   * S. Grimme, C. Bannwarth, P. Shushkov, J. Chem. Theory Comput., 2017,
     13, 1989-2009. DOI: 10.1021/acs.jctc.7b00118
   for GFN0-xTB:
   * P. Pracht, E. Caldeweyher, S. Ehlert, S. Grimme, ChemRxiv, 2019, preprint.
     DOI: 10.26434/chemrxiv.8326202.v1
   for GFN-FF:
   * S. Spicher and S. Grimme, Angew. Chem. Int. Ed., 2020, 59, 15665-15673.
     DOI: 10.1002/anie.202004239
   
   for ALPB and GBSA implicit solvation:
   * S. Ehlert, M. Stahn, S. Spicher, S. Grimme, J. Chem. Theory Comput.,
     2021, 17, 4250-4261. DOI: 10.1021/acs.jctc.1c00471
   
   for DFT-D4:
   * E. Caldeweyher, C. Bannwarth and S. Grimme, J. Chem. Phys., 2017,
     147, 034112. DOI: 10.1063/1.4993215
   * E. Caldeweyher, S. Ehlert, A. Hansen, H. Neugebauer, S. Spicher,
     C. Bannwarth and S. Grimme, J. Chem. Phys., 2019, 150, 154122.
     DOI: 10.1063/1.5090222
   * E. Caldeweyher, J.-M. Mewes, S. Ehlert and S. Grimme, Phys. Chem. Chem. Phys.
     2020, 22, 8499-8512. DOI: 10.1039/D0CP00502A
   
   for sTDA-xTB:
   * S. Grimme and C. Bannwarth, J. Chem. Phys., 2016, 145, 054103.
     DOI: 10.1063/1.4959605
   
   in the mass-spec context:
   * V. Asgeirsson, C. Bauer and S. Grimme, Chem. Sci., 2017, 8, 4879.
     DOI: 10.1039/c7sc00601b
   * J. Koopman and S. Grimme, ACS Omega 2019, 4, 12, 15120-15133.
     DOI: 10.1021/acsomega.9b02011
   
   for metadynamics refer to:
   * S. Grimme, J. Chem. Theory Comput., 2019, 155, 2847-2862
     DOI: 10.1021/acs.jctc.9b00143
   
   for SPH calculations refer to:
   * S. Spicher and S. Grimme, J. Chem. Theory Comput., 2021, 17, 1701-1714
     DOI: 10.1021/acs.jctc.0c01306
   
   with help from (in alphabetical order)
   P. Atkinson, C. Bannwarth, F. Bohle, G. Brandenburg, E. Caldeweyher
   M. Checinski, S. Dohm, S. Ehlert, S. Ehrlich, I. Gerasimov, C. Hölzer
   A. Katbashev, J. Koopman, C. Lavigne, S. Lehtola, F. März, M. Müller,
   F. Musil, H. Neugebauer, J. Pisarek, C. Plett, P. Pracht, F. Pultar,
   J. Seibert, P. Shushkov, S. Spicher, M. Stahn, M. Steiner, T. Strunk,
   J. Stückrath, T. Rose, and J. Unsleber
   
 * started run on 2023/12/07 at 00:17:38.968     

           -------------------------------------------------
          |                Calculation Setup                |
           -------------------------------------------------

          program call               : otool_xtb /tmp/33_XTB.xyz --grad -c 0 -u 0 -P 1 --namespace /tmp/33 --input /tmp/33_XTB.input.tmp --acc 1.000000
          calculation namespace      : /tmp/33
          coordinate file            : /tmp/33_XTB.xyz
          omp threads                :                     1

   ID    Z sym.   atoms
    1    8 O      1, 4, 6, 8-10, 12, 15, 17, 19, 21-23, 25, 26
    2    6 C      2, 3, 5, 11, 13, 14, 16, 18, 24
    3   15 P      7, 20
    4    1 H      27-44

           -------------------------------------------------
          |                 G F N 2 - x T B                 |
           -------------------------------------------------

        Reference                      10.1021/acs.jctc.8b01176
      * Hamiltonian:
        H0-scaling (s, p, d)           1.850000    2.230000    2.230000
        zeta-weighting                 0.500000
      * Dispersion:
        s8                             2.700000
        a1                             0.520000
        a2                             5.000000
        s9                             5.000000
      * Repulsion:
        kExp                           1.500000    1.000000
        rExp                           1.000000
      * Coulomb:
        alpha                          2.000000
        third order                    shell-resolved
        anisotropic                    true
        a3                             3.000000
        a5                             4.000000
        cn-shift                       1.200000
        cn-exp                         4.000000
        max-rad                        5.000000

q/qsh data taken from xtbrestart
CAMM data taken from xtbrestart

          ...................................................
          :                      SETUP                      :
          :.................................................:
          :  # basis functions                 134          :
          :  # atomic orbitals                 132          :
          :  # shells                           72          :
          :  # electrons                       154          :
          :  max. iterations                   250          :
          :  Hamiltonian                  GFN2-xTB          :
          :  restarted?                       true          :
          :  GBSA solvation                  false          :
          :  PC potential                    false          :
          :  electronic temp.          300.0000000     K    :
          :  accuracy                    1.0000000          :
          :  -> integral cutoff          0.2500000E+02      :
          :  -> integral neglect         0.1000000E-07      :
          :  -> SCF convergence          0.1000000E-05 Eh   :
          :  -> wf. convergence          0.1000000E-03 e    :
          :  Broyden damping             0.4000000          :
          ...................................................

 iter      E             dE          RMSdq      gap      omega  full diag
   1    -95.4016591 -0.954017E+02  0.371E-01    3.10       0.0  T
   2    -95.4018082 -0.149111E-03  0.216E-01    3.10       1.0  T
   3    -95.4017705  0.376660E-04  0.546E-02    3.07       1.0  T
   4    -95.4018371 -0.665300E-04  0.141E-02    3.09       1.1  T
   5    -95.4018393 -0.224302E-05  0.605E-03    3.09       2.5  T
   6    -95.4018395 -0.180129E-06  0.301E-03    3.09       5.0  T
   7    -95.4018395 -0.552235E-07  0.119E-03    3.09      12.7  T
   8    -95.4018395 -0.756906E-08  0.402E-04    3.09      37.5  T
   9    -95.4018396 -0.138358E-08  0.142E-04    3.09     106.2  T

   *** convergence criteria satisfied after 9 iterations ***

         #    Occupation            Energy/Eh            Energy/eV
      -------------------------------------------------------------
         1        2.0000           -0.7689130             -20.9232
       ...           ...                  ...                  ...
        71        2.0000           -0.4487043             -12.2099
        72        2.0000           -0.4438670             -12.0782
        73        2.0000           -0.4417391             -12.0203
        74        2.0000           -0.4403507             -11.9826
        75        2.0000           -0.4390234             -11.9464
        76        2.0000           -0.4357522             -11.8574
        77        2.0000           -0.4141801             -11.2704 (HOMO)
        78                         -0.3007679              -8.1843 (LUMO)
        79                         -0.2638982              -7.1810
        80                         -0.0982801              -2.6743
        81                         -0.0965799              -2.6281
        82                         -0.0507622              -1.3813
       ...                                ...                  ...
       132                          1.2776338              34.7662
      -------------------------------------------------------------
                  HL-Gap            0.1134121 Eh            3.0861 eV
             Fermi-level           -0.3574740 Eh           -9.7274 eV

 SCC (total)                   0 d,  0 h,  0 min,  0.076 sec
 SCC setup                      ...        0 min,  0.000 sec (  0.420%)
 Dispersion                     ...        0 min,  0.000 sec (  0.624%)
 classical contributions        ...        0 min,  0.000 sec (  0.151%)
[...]
 22:    160.59   0.001057    5.34  0.002055  ( 0.016336  0.022747  0.035640)
 23:    181.27   0.004472   22.60  0.007698  ( 0.058632 -0.050097  0.041845)
 24:    196.24   0.002896   14.63  0.004605  ( 0.026071  0.001554 -0.062634)
 25:    201.33   0.011059   55.89  0.017142  ( 0.029879 -0.127242  0.007677)
 26:    205.64   0.002440   12.33  0.003703  ( 0.015328  0.056242  0.017461)
 27:    214.26   0.002901   14.66  0.004226  (-0.016007  0.061986 -0.011272)
 28:    225.23   0.013014   65.77  0.018031  (-0.101414 -0.087837  0.005544)
 29:    234.28   0.008589   43.41  0.011441  ( 0.078382  0.008011 -0.072339)
 30:    247.86   0.007115   35.95  0.008957  ( 0.069512  0.053013 -0.036266)
 31:    265.87   0.029853  150.87  0.035039  (-0.135826 -0.100826  0.080154)
 32:    274.44   0.000890    4.50  0.001012  (-0.029620 -0.011566 -0.001133)
 33:    284.80   0.003026   15.29  0.003316  ( 0.015653 -0.049339 -0.025231)
 34:    306.53   0.005997   30.30  0.006105  ( 0.005172 -0.071524  0.031023)
 35:    320.70   0.001360    6.87  0.001323  ( 0.009200 -0.025604 -0.024139)
 36:    340.61   0.002276   11.50  0.002086  (-0.039570 -0.022797 -0.000466)
 37:    346.47   0.002758   13.94  0.002484  ( 0.046109 -0.004400 -0.018403)
 38:    352.36   0.005902   29.82  0.005227  ( 0.053510 -0.017696 -0.045280)
 39:    358.33   0.007216   36.46  0.006284  ( 0.037064 -0.040857 -0.056930)
 40:    359.71   0.016673   84.26  0.014464  (-0.081014 -0.023267  0.085789)
 41:    368.04   0.008241   41.65  0.006988  (-0.029465  0.070153  0.034613)
 42:    374.52   0.019588   98.99  0.016321  (-0.127372  0.007166  0.006804)
 43:    390.64   0.005799   29.31  0.004633  ( 0.037898 -0.055586 -0.010335)
 44:    404.53   0.022354  112.97  0.017244  (-0.118821  0.036214 -0.042597)
 45:    410.78   0.033596  169.78  0.025522  ( 0.024787  0.115252 -0.107817)
 46:    414.77   0.000214    1.08  0.000161  (-0.003408 -0.012211  0.000241)
 47:    423.69   0.014633   73.95  0.010778  ( 0.034356 -0.069100 -0.069447)
 48:    430.76   0.010056   50.82  0.007285  ( 0.038680 -0.037226 -0.066359)
 49:    456.30   0.003679   18.59  0.002516  ( 0.034849  0.035050 -0.008548)
 50:    475.41   0.015599   78.83  0.010240  ( 0.062308 -0.056815 -0.055942)
 51:    483.35   0.006910   34.92  0.004461  (-0.015049  0.064443  0.009042)
 52:    498.16   0.016562   83.70  0.010375  (-0.046016 -0.090206  0.010961)
 53:    511.60   0.000123    0.62  0.000075  ( 0.003762 -0.006623  0.004137)
 54:    535.85   0.004521   22.85  0.002633  ( 0.000838 -0.050527  0.008917)
 55:    540.66   0.014511   73.33  0.008375  ( 0.088110  0.023828  0.006651)
 56:    566.09   0.004793   24.22  0.002642  ( 0.031639 -0.031018 -0.026057)
 57:    584.77   0.013178   66.59  0.007032  (-0.065112 -0.016082 -0.050340)
 58:    603.97   0.015360   77.62  0.007936  ( 0.013689 -0.085935  0.019080)
 59:    662.24   0.064124  324.06  0.030217  (-0.147849 -0.063039 -0.066209)
 60:    735.98   0.019562   98.86  0.008294  (-0.073059 -0.053304 -0.010750)
 61:    752.83   0.002904   14.68  0.001204  (-0.013574 -0.003645  0.031722)
 62:    761.24   0.008990   45.43  0.003685  ( 0.030782 -0.043468  0.029125)
 63:    766.54   0.001590    8.04  0.000647  (-0.021337  0.005276  0.012821)
 64:    782.78   0.007612   38.47  0.003035  ( 0.005752 -0.030600 -0.045446)
 65:    822.05   0.042618  215.37  0.016178  ( 0.047434 -0.018013 -0.116636)
 66:    827.49   0.035215  177.96  0.013280  (-0.033108 -0.109751  0.011776)
 67:    827.93   0.027024  136.57  0.010186  ( 0.040000 -0.061181  0.069592)
 68:    838.18   0.026229  132.55  0.009765  ( 0.018173 -0.096948 -0.006026)
 69:    877.07   0.032054  161.99  0.011405  ( 0.012929  0.023398 -0.103394)
 70:    882.07   0.037599  190.01  0.013302  (-0.042454  0.072288  0.079208)
 71:    886.59   0.004954   25.03  0.001744  (-0.005403 -0.036194 -0.020110)
 72:    899.06   0.045133  228.08  0.015666  ( 0.075742 -0.027849 -0.095672)
 73:    900.22   0.056944  287.77  0.019740  (-0.072051  0.093919  0.075682)
 74:    913.43   0.070946  358.53  0.024238  ( 0.138548  0.042888  0.056593)
 75:    924.51   0.038125  192.67  0.012869  (-0.064932  0.020077 -0.090828)
 76:    928.87   0.005877   29.70  0.001974  (-0.017579  0.035563  0.020017)
 77:    951.77   0.007313   36.96  0.002398  (-0.008099  0.027096 -0.039975)
 78:    967.33   0.009145   46.22  0.002950  (-0.014521 -0.049600  0.016712)
 79:   1030.02   0.010767   54.41  0.003262  ( 0.050183 -0.025795  0.008850)
 80:   1052.34   0.003484   17.61  0.001033  (-0.005842 -0.006669 -0.030897)
 81:   1055.32   0.000941    4.76  0.000278  ( 0.007726  0.006464  0.013296)
 82:   1078.36   0.060448  305.48  0.017493  (-0.109883 -0.042703  0.059958)
 83:   1081.69   0.007490   37.85  0.002161  ( 0.000523 -0.011593 -0.045012)
 84:   1084.93   0.017951   90.71  0.005163  ( 0.056090 -0.043308 -0.011901)
 85:   1095.48   0.012812   64.74  0.003650  ( 0.043386 -0.032837 -0.026248)
 86:   1104.60   0.017076   86.29  0.004824  (-0.004480  0.069186  0.004164)
 87:   1125.33   0.010278   51.94  0.002850  ( 0.007303  0.051489 -0.012067)
 88:   1134.78   0.055397  279.95  0.015234  ( 0.016367 -0.100381  0.069927)
 89:   1161.33   0.001389    7.02  0.000373  (-0.014606 -0.011778  0.004602)
 90:   1165.74   0.003548   17.93  0.000950  (-0.017402 -0.006292 -0.024646)
 91:   1180.10   0.002685   13.57  0.000710  (-0.008484 -0.003237  0.025049)
 92:   1200.67   0.017881   90.36  0.004647  ( 0.061321  0.004020 -0.029512)
 93:   1208.69   0.032337  163.42  0.008349  ( 0.062382  0.051696  0.042246)
 94:   1220.03   0.064155  324.21  0.016410  ( 0.096640  0.077090 -0.033578)
 95:   1231.24   0.010789   54.53  0.002735  ( 0.009078 -0.046108  0.022940)
 96:   1251.60   0.015177   76.70  0.003784  (-0.013607  0.044772  0.039930)
 97:   1258.22   0.025923  131.00  0.006429  (-0.018795 -0.005165  0.077778)
 98:   1267.37   0.012134   61.32  0.002988  ( 0.006897 -0.000666  0.054219)
 99:   1277.63   0.025066  126.67  0.006122  ( 0.021631  0.061025 -0.043938)
100:   1291.93   0.010989   55.54  0.002654  (-0.028078  0.003131  0.043085)
101:   1297.93   0.080312  405.87  0.019310  ( 0.129903  0.008850  0.048544)
102:   1304.84   0.006467   32.68  0.001547  ( 0.023794  0.005350 -0.030853)
103:   1306.77   0.010199   51.54  0.002436  ( 0.023004  0.038483  0.020626)
104:   1326.21   0.003345   16.90  0.000787  (-0.004434 -0.027292  0.004740)
105:   1328.29   0.004140   20.92  0.000973  (-0.002675 -0.026277 -0.016582)
106:   1339.98   0.002809   14.19  0.000654  ( 0.006890  0.023194  0.008287)
107:   1342.78   0.008719   44.06  0.002026  ( 0.013877  0.042570 -0.004644)
108:   1354.31   0.010239   51.74  0.002359  ( 0.027551  0.020898 -0.034111)
109:   1429.65   0.000805    4.07  0.000176  ( 0.005263 -0.011158  0.004852)
110:   1441.52   0.001248    6.30  0.000270  (-0.001357 -0.013492 -0.009285)
111:   1454.61   0.001989   10.05  0.000427  ( 0.004376  0.001637 -0.020120)
112:   1769.32   0.056177  283.90  0.009908  (-0.079921  0.059294 -0.002243)
113:   1788.28   0.078782  398.13  0.013748  (-0.029463 -0.044650  0.104337)
114:   2864.20   0.006930   35.02  0.000755  (-0.015682  0.005226 -0.021950)
115:   2870.67   0.003015   15.24  0.000328  ( 0.000880 -0.000951  0.018058)
116:   2950.51   0.000426    2.15  0.000045  (-0.000628  0.000412 -0.006668)
117:   2955.99   0.006177   31.22  0.000652  ( 0.000481  0.000917  0.025516)
118:   2972.34   0.000146    0.74  0.000015  (-0.000443 -0.002387 -0.003072)
119:   2981.23   0.001030    5.21  0.000108  ( 0.003083  0.007990  0.005873)
120:   2982.14   0.008486   42.88  0.000888  ( 0.015894 -0.010590 -0.022873)
121:   2986.41   0.001797    9.08  0.000188  (-0.006894  0.005422 -0.010530)
122:   2993.50   0.002238   11.31  0.000233  ( 0.000421 -0.000679 -0.015252)
123:   3184.80   0.152332  769.82  0.014926  ( 0.104951 -0.054914 -0.029932)
124:   3422.13   0.031180  157.57  0.002843  ( 0.051857 -0.011526 -0.004613)
125:   3430.01   0.002939   14.85  0.000267  (-0.003341  0.014640  0.006474)
126:   3433.09   0.010125   51.17  0.000920  (-0.025066  0.016273  0.005220)
127:   3515.43   0.003053   15.43  0.000271  ( 0.007809 -0.000317  0.014489)
128:   3612.93   0.019604   99.07  0.001693  (-0.019253  0.035426  0.008222)
129:   3619.25   0.011566   58.45  0.000997  ( 0.014690 -0.021974  0.017281)
130:   3626.46   0.014736   74.47  0.001268  (-0.000320 -0.022828 -0.027328)
131:   3637.72   0.013295   67.19  0.001141  ( 0.028087  0.017598 -0.006478)

* The epsilon (eps) is given for a Dirac delta lineshape.
** The dipole moment derivative (T) already includes vibrational overlap.

The first frequency considered to be a vibration is 6
The total number of vibrations considered is 126


--------------------------
THERMOCHEMISTRY AT 298.15K
--------------------------

Temperature         ... 298.15 K
Pressure            ... 1.00 atm
Total Mass          ... 428.18 AMU

Throughout the following assumptions are being made:
  (1) The electronic state is orbitally nondegenerate
  (2) There are no thermally accessible electronically excited states
  (3) Hindered rotations indicated by low frequency modes are not
      treated as such but are treated as vibrations and this may
      cause some error
  (4) All equations used are the standard statistical mechanics
      equations for an ideal gas
  (5) All vibrations are strictly harmonic

freq.      14.53  E(vib)   ...       0.57 
freq.      25.17  E(vib)   ...       0.56 
freq.      27.65  E(vib)   ...       0.55 
freq.      28.46  E(vib)   ...       0.55 
freq.      40.97  E(vib)   ...       0.54 
freq.      53.31  E(vib)   ...       0.52 
freq.      62.14  E(vib)   ...       0.51 
freq.      74.55  E(vib)   ...       0.49 
freq.      83.89  E(vib)   ...       0.48 
freq.      96.27  E(vib)   ...       0.47 
freq.     106.85  E(vib)   ...       0.45 
freq.     120.30  E(vib)   ...       0.44 
freq.     131.40  E(vib)   ...       0.42 
freq.     140.44  E(vib)   ...       0.41 
freq.     145.88  E(vib)   ...       0.41 
freq.     159.17  E(vib)   ...       0.39 
freq.     160.59  E(vib)   ...       0.39 
freq.     181.27  E(vib)   ...       0.37 
freq.     196.24  E(vib)   ...       0.36 
freq.     201.33  E(vib)   ...       0.35 
freq.     205.64  E(vib)   ...       0.35 
freq.     214.26  E(vib)   ...       0.34 
freq.     225.23  E(vib)   ...       0.33 
freq.     234.28  E(vib)   ...       0.32 
freq.     247.86  E(vib)   ...       0.31 
freq.     265.87  E(vib)   ...       0.29 
freq.     274.44  E(vib)   ...       0.28 
freq.     284.80  E(vib)   ...       0.28 
freq.     306.53  E(vib)   ...       0.26 
freq.     320.70  E(vib)   ...       0.25 
freq.     340.61  E(vib)   ...       0.23 
freq.     346.47  E(vib)   ...       0.23 
freq.     352.36  E(vib)   ...       0.23 
freq.     358.33  E(vib)   ...       0.22 
freq.     359.71  E(vib)   ...       0.22 
freq.     368.04  E(vib)   ...       0.21 
freq.     374.52  E(vib)   ...       0.21 
freq.     390.64  E(vib)   ...       0.20 
freq.     404.53  E(vib)   ...       0.19 
freq.     410.78  E(vib)   ...       0.19 
freq.     414.77  E(vib)   ...       0.19 
freq.     423.69  E(vib)   ...       0.18 
freq.     430.76  E(vib)   ...       0.18 
freq.     456.30  E(vib)   ...       0.16 
freq.     475.41  E(vib)   ...       0.15 
freq.     483.35  E(vib)   ...       0.15 
freq.     498.16  E(vib)   ...       0.14 
freq.     511.60  E(vib)   ...       0.14 
freq.     535.85  E(vib)   ...       0.12 
freq.     540.66  E(vib)   ...       0.12 
freq.     566.09  E(vib)   ...       0.11 
freq.     584.77  E(vib)   ...       0.11 
freq.     603.97  E(vib)   ...       0.10 
freq.     662.24  E(vib)   ...       0.08 
freq.     735.98  E(vib)   ...       0.06 
freq.     752.83  E(vib)   ...       0.06 
freq.     761.24  E(vib)   ...       0.06 
freq.     766.54  E(vib)   ...       0.06 
freq.     782.78  E(vib)   ...       0.05 
freq.     822.05  E(vib)   ...       0.05 
freq.     827.49  E(vib)   ...       0.04 
freq.     827.93  E(vib)   ...       0.04 
freq.     838.18  E(vib)   ...       0.04 
freq.     877.07  E(vib)   ...       0.04 
freq.     882.07  E(vib)   ...       0.04 
freq.     886.59  E(vib)   ...       0.04 
freq.     899.06  E(vib)   ...       0.03 
freq.     900.22  E(vib)   ...       0.03 
freq.     913.43  E(vib)   ...       0.03 
freq.     924.51  E(vib)   ...       0.03 
freq.     928.87  E(vib)   ...       0.03 
freq.     951.77  E(vib)   ...       0.03 
freq.     967.33  E(vib)   ...       0.03 
freq.    1030.02  E(vib)   ...       0.02 
freq.    1052.34  E(vib)   ...       0.02 
freq.    1055.32  E(vib)   ...       0.02 
freq.    1078.36  E(vib)   ...       0.02 
freq.    1081.69  E(vib)   ...       0.02 
freq.    1084.93  E(vib)   ...       0.02 
freq.    1095.48  E(vib)   ...       0.02 
freq.    1104.60  E(vib)   ...       0.02 
freq.    1125.33  E(vib)   ...       0.01 
freq.    1134.78  E(vib)   ...       0.01 
freq.    1161.33  E(vib)   ...       0.01 
freq.    1165.74  E(vib)   ...       0.01 
freq.    1180.10  E(vib)   ...       0.01 
freq.    1200.67  E(vib)   ...       0.01 
freq.    1208.69  E(vib)   ...       0.01 
freq.    1220.03  E(vib)   ...       0.01 
freq.    1231.24  E(vib)   ...       0.01 
freq.    1251.60  E(vib)   ...       0.01 
freq.    1258.22  E(vib)   ...       0.01 
freq.    1267.37  E(vib)   ...       0.01 
freq.    1277.63  E(vib)   ...       0.01 
freq.    1291.93  E(vib)   ...       0.01 
freq.    1297.93  E(vib)   ...       0.01 
freq.    1304.84  E(vib)   ...       0.01 
freq.    1306.77  E(vib)   ...       0.01 
freq.    1326.21  E(vib)   ...       0.01 
freq.    1328.29  E(vib)   ...       0.01 
freq.    1339.98  E(vib)   ...       0.01 
freq.    1342.78  E(vib)   ...       0.01 
freq.    1354.31  E(vib)   ...       0.01 
freq.    1429.65  E(vib)   ...       0.00 
freq.    1441.52  E(vib)   ...       0.00 
freq.    1454.61  E(vib)   ...       0.00 
freq.    1769.32  E(vib)   ...       0.00 
freq.    1788.28  E(vib)   ...       0.00 
freq.    2864.20  E(vib)   ...       0.00 
freq.    2870.67  E(vib)   ...       0.00 
freq.    2950.51  E(vib)   ...       0.00 
freq.    2955.99  E(vib)   ...       0.00 
freq.    2972.34  E(vib)   ...       0.00 
freq.    2981.23  E(vib)   ...       0.00 
freq.    2982.14  E(vib)   ...       0.00 
freq.    2986.41  E(vib)   ...       0.00 
freq.    2993.50  E(vib)   ...       0.00 
freq.    3184.80  E(vib)   ...       0.00 
freq.    3422.13  E(vib)   ...       0.00 
freq.    3430.01  E(vib)   ...       0.00 
freq.    3433.09  E(vib)   ...       0.00 
freq.    3515.43  E(vib)   ...       0.00 
freq.    3612.93  E(vib)   ...       0.00 
freq.    3619.25  E(vib)   ...       0.00 
freq.    3626.46  E(vib)   ...       0.00 
freq.    3637.72  E(vib)   ...       0.00 

------------
INNER ENERGY
------------

The inner energy is: U= E(el) + E(ZPE) + E(vib) + E(rot) + E(trans)
    E(el)   - is the total energy from the electronic structure calculation
              = E(kin-el) + E(nuc-el) + E(el-el) + E(nuc-nuc)
    E(ZPE)  - the the zero temperature vibrational energy from the frequency calculation
    E(vib)  - the the finite temperature correction to E(ZPE) due to population
              of excited vibrational states
    E(rot)  - is the rotational thermal energy
    E(trans)- is the translational thermal energy

Summary of contributions to the inner energy U:
Electronic energy                ...    -94.79093332 Eh
Zero point energy                ...      0.30493344 Eh     191.35 kcal/mol
Thermal vibrational correction   ...      0.02777321 Eh      17.43 kcal/mol
Thermal rotational correction    ...      0.00141627 Eh       0.89 kcal/mol
Thermal translational correction ...      0.00141627 Eh       0.89 kcal/mol
-----------------------------------------------------------------------
Total thermal energy                    -94.45539413 Eh


Summary of corrections to the electronic energy:
(perhaps to be used in another calculation)
Total thermal correction                  0.03060575 Eh      19.21 kcal/mol
Non-thermal (ZPE) correction              0.30493344 Eh     191.35 kcal/mol
-----------------------------------------------------------------------
Total correction                          0.33553919 Eh     210.55 kcal/mol


--------
ENTHALPY
--------

The enthalpy is H = U + kB*T
                kB is Boltzmann's constant
Total free energy                 ...    -94.45539413 Eh 
Thermal Enthalpy correction       ...      0.00094421 Eh       0.59 kcal/mol
-----------------------------------------------------------------------
Total Enthalpy                    ...    -94.45444993 Eh


Note: Only C1 symmetry has been detected, increase convergence thresholds 
      if your molecule has a higher symmetry. Symmetry factor of 1.0 is   
      used for the rotational entropy correction. 
 

Note: Rotational entropy computed according to Herzberg 
Infrared and Raman Spectra, Chapter V,1, Van Nostrand Reinhold, 1945 
Point Group:  C1, Symmetry Number:   1  
Rotational constants in cm-1:     0.015484     0.002443     0.002299 

Vibrational entropy computed according to the QRRHO of S. Grimme
Chem.Eur.J. 2012 18 9955


-------
ENTROPY
-------

The entropy contributions are T*S = T*(S(el)+S(vib)+S(rot)+S(trans))
     S(el)   - electronic entropy
     S(vib)  - vibrational entropy
     S(rot)  - rotational entropy
     S(trans)- translational entropy
The entropies will be listed as multiplied by the temperature to get
units of energy

Electronic entropy                ...      0.00000000 Eh      0.00 kcal/mol
Vibrational entropy               ...      0.05012311 Eh     31.45 kcal/mol
Rotational entropy                ...      0.01718593 Eh     10.78 kcal/mol
Translational entropy             ...      0.02093102 Eh     13.13 kcal/mol
-----------------------------------------------------------------------
Final entropy term                ...      0.08824005 Eh     55.37 kcal/mol

In case the symmetry of your molecule has not been determined correctly
or in case you have a reason to use a different symmetry number we print 
out the resulting rotational entropy values for sn=1,12 :
 --------------------------------------------------------
|  sn= 1 | S(rot)=       0.01718593 Eh     10.78 kcal/mol|
|  sn= 2 | S(rot)=       0.01653147 Eh     10.37 kcal/mol|
|  sn= 3 | S(rot)=       0.01614864 Eh     10.13 kcal/mol|
|  sn= 4 | S(rot)=       0.01587702 Eh      9.96 kcal/mol|
|  sn= 5 | S(rot)=       0.01566633 Eh      9.83 kcal/mol|
|  sn= 6 | S(rot)=       0.01549418 Eh      9.72 kcal/mol|
|  sn= 7 | S(rot)=       0.01534864 Eh      9.63 kcal/mol|
|  sn= 8 | S(rot)=       0.01522256 Eh      9.55 kcal/mol|
|  sn= 9 | S(rot)=       0.01511135 Eh      9.48 kcal/mol|
|  sn=10 | S(rot)=       0.01501187 Eh      9.42 kcal/mol|
|  sn=11 | S(rot)=       0.01492188 Eh      9.36 kcal/mol|
|  sn=12 | S(rot)=       0.01483973 Eh      9.31 kcal/mol|
 --------------------------------------------------------


-------------------
GIBBS FREE ENERGY
-------------------

The Gibbs free energy is G = H - T*S

Total enthalpy                    ...    -94.45444993 Eh 
Total entropy correction          ...     -0.08824005 Eh    -55.37 kcal/mol
-----------------------------------------------------------------------
Final Gibbs free energy         ...    -94.54268998 Eh

For completeness - the Gibbs free energy minus the electronic energy
G-E(el)                           ...      0.24824334 Eh    155.77 kcal/mol



Timings for individual modules:

Sum of individual times         ...      668.169 sec (=  11.136 min)
Geometry relaxation             ...        4.872 sec (=   0.081 min)   0.7 %
Numerical frequency calculation ...      659.301 sec (=  10.988 min)  98.7 %
XTB module                      ...        3.995 sec (=   0.067 min)   0.6 %
                             ****ORCA TERMINATED NORMALLY****
TOTAL RUN TIME: 0 days 0 hours 11 minutes 11 seconds 909 msec
