
                                 *****************
                                 * O   R   C   A *
                                 *****************

                                            #,                                       
                                            ###                                      
                                            ####                                     
                                            #####                                    
                                            ######                                   
                                           ########,                                 
                                     ,,################,,,,,                         
                               ,,#################################,,                 
                          ,,##########################################,,             
                       ,#########################################, ''#####,          
                    ,#############################################,,   '####,        
                  ,##################################################,,,,####,       
                ,###########''''           ''''###############################       
              ,#####''   ,,,,##########,,,,          '''####'''          '####       
            ,##' ,,,,###########################,,,                        '##       
           ' ,,###''''                  '''############,,,                           
         ,,##''                                '''############,,,,        ,,,,,,###''
      ,#''                                            '''#######################'''  
     '                                                          ''''####''''         
             ,#######,   #######,   ,#######,      ##                                
            ,#'     '#,  ##    ##  ,#'     '#,    #''#        ######   ,####,        
            ##       ##  ##   ,#'  ##            #'  '#       #        #'  '#        
            ##       ##  #######   ##           ,######,      #####,   #    #        
            '#,     ,#'  ##    ##  '#,     ,#' ,#      #,         ##   #,  ,#        
             '#######'   ##     ##  '#######'  #'      '#     #####' # '####'        



                  #######################################################
                  #                        -***-                        #
                  #          Department of theory and spectroscopy      #
                  #    Directorship and core code : Frank Neese         #
                  #        Max Planck Institute fuer Kohlenforschung    #
                  #                Kaiser Wilhelm Platz 1               #
                  #                 D-45470 Muelheim/Ruhr               #
                  #                      Germany                        #
                  #                                                     #
                  #                  All rights reserved                #
                  #                        -***-                        #
                  #######################################################


                         Program Version 5.0.3 -  RELEASE  -


 With contributions from (in alphabetic order):
   Daniel Aravena         : Magnetic Suceptibility
   Michael Atanasov       : Ab Initio Ligand Field Theory (pilot matlab implementation)
   Alexander A. Auer      : GIAO ZORA, VPT2 properties, NMR spectrum
   Ute Becker             : Parallelization
   Giovanni Bistoni       : ED, misc. LED, open-shell LED, HFLD
   Martin Brehm           : Molecular dynamics
   Dmytro Bykov           : SCF Hessian
   Vijay G. Chilkuri      : MRCI spin determinant printing, contributions to CSF-ICE
   Dipayan Datta          : RHF DLPNO-CCSD density
   Achintya Kumar Dutta   : EOM-CC, STEOM-CC
   Dmitry Ganyushin       : Spin-Orbit,Spin-Spin,Magnetic field MRCI
   Miquel Garcia          : C-PCM and meta-GGA Hessian, CC/C-PCM, Gaussian charge scheme
   Yang Guo               : DLPNO-NEVPT2, F12-NEVPT2, CIM, IAO-localization
   Andreas Hansen         : Spin unrestricted coupled pair/coupled cluster methods
   Benjamin Helmich-Paris : MC-RPA, TRAH-SCF, COSX integrals
   Lee Huntington         : MR-EOM, pCC
   Robert Izsak           : Overlap fitted RIJCOSX, COSX-SCS-MP3, EOM
   Marcus Kettner         : VPT2
   Christian Kollmar      : KDIIS, OOCD, Brueckner-CCSD(T), CCSD density, CASPT2, CASPT2-K
   Simone Kossmann        : Meta GGA functionals, TD-DFT gradient, OOMP2, MP2 Hessian
   Martin Krupicka        : Initial AUTO-CI
   Lucas Lang             : DCDCAS
   Marvin Lechner         : AUTO-CI (C++ implementation), FIC-MRCC
   Dagmar Lenk            : GEPOL surface, SMD
   Dimitrios Liakos       : Extrapolation schemes; Compound Job, initial MDCI parallelization
   Dimitrios Manganas     : Further ROCIS development; embedding schemes
   Dimitrios Pantazis     : SARC Basis sets
   Anastasios Papadopoulos: AUTO-CI, single reference methods and gradients
   Taras Petrenko         : DFT Hessian,TD-DFT gradient, ASA, ECA, R-Raman, ABS, FL, XAS/XES, NRVS
   Peter Pinski           : DLPNO-MP2, DLPNO-MP2 Gradient
   Christoph Reimann      : Effective Core Potentials
   Marius Retegan         : Local ZFS, SOC
   Christoph Riplinger    : Optimizer, TS searches, QM/MM, DLPNO-CCSD(T), (RO)-DLPNO pert. Triples
   Tobias Risthaus        : Range-separated hybrids, TD-DFT gradient, RPA, STAB
   Michael Roemelt        : Original ROCIS implementation
   Masaaki Saitow         : Open-shell DLPNO-CCSD energy and density
   Barbara Sandhoefer     : DKH picture change effects
   Avijit Sen             : IP-ROCIS
   Kantharuban Sivalingam : CASSCF convergence, NEVPT2, FIC-MRCI
   Bernardo de Souza      : ESD, SOC TD-DFT
   Georgi Stoychev        : AutoAux, RI-MP2 NMR, DLPNO-MP2 response
   Willem Van den Heuvel  : Paramagnetic NMR
   Boris Wezisla          : Elementary symmetry handling
   Frank Wennmohs         : Technical directorship


 We gratefully acknowledge several colleagues who have allowed us to
 interface, adapt or use parts of their codes:
   Stefan Grimme, W. Hujo, H. Kruse, P. Pracht,  : VdW corrections, initial TS optimization,
                  C. Bannwarth, S. Ehlert          DFT functionals, gCP, sTDA/sTD-DF
   Ed Valeev, F. Pavosevic, A. Kumar             : LibInt (2-el integral package), F12 methods
   Garnet Chan, S. Sharma, J. Yang, R. Olivares  : DMRG
   Ulf Ekstrom                                   : XCFun DFT Library
   Mihaly Kallay                                 : mrcc  (arbitrary order and MRCC methods)
   Jiri Pittner, Ondrej Demel                    : Mk-CCSD
   Frank Weinhold                                : gennbo (NPA and NBO analysis)
   Christopher J. Cramer and Donald G. Truhlar   : smd solvation model
   Lars Goerigk                                  : TD-DFT with DH, B97 family of functionals
   V. Asgeirsson, H. Jonsson                     : NEB implementation
   FAccTs GmbH                                   : IRC, NEB, NEB-TS, DLPNO-Multilevel, CI-OPT
                                                   MM, QMMM, 2- and 3-layer-ONIOM, Crystal-QMMM,
                                                   LR-CPCM, SF, NACMEs, symmetry and pop. for TD-DFT,
                                                   nearIR, NL-DFT gradient (VV10), updates on ESD,
                                                   ML-optimized integration grids
   S Lehtola, MJT Oliveira, MAL Marques          : LibXC Library
   Liviu Ungur et al                             : ANISO software


 Your calculation uses the libint2 library for the computation of 2-el integrals
 For citations please refer to: http://libint.valeyev.net

 Your ORCA version has been built with support for libXC version: 5.1.0
 For citations please refer to: https://tddft.org/programs/libxc/

 This ORCA versions uses:
   CBLAS   interface :  Fast vector & matrix operations
   LAPACKE interface :  Fast linear algebra routines
   SCALAPACK package :  Parallel linear algebra routines
   Shared memory     :  Shared parallel matrices
   BLAS/LAPACK       :  OpenBLAS 0.3.15  USE64BITINT DYNAMIC_ARCH NO_AFFINITY Haswell SINGLE_THREADED
        Core in use  :  Haswell
   Copyright (c) 2011-2014, The OpenBLAS Project


Your calculation utilizes the semiempirical GFN2-xTB method
Please cite in your paper:
C. Bannwarth, Ehlert S., S. Grimme,  J. Chem. Theory Comput., 15, (2019), 1652.
   

================================================================================

================================================================================
                                        WARNINGS
                       Please study these warnings very carefully!
================================================================================


WARNING: Geometry Optimization
  ===> : Switching off AutoStart
         For restart on a previous wavefunction, please use MOREAD

WARNING: Found dipole moment calculation with XTB calculation
  ===> : Switching off dipole moment calculation


WARNING: TRAH-SCF for XTB is not implemented!
  ===> : Turning TRAH off!

================================================================================
                                       INPUT FILE
================================================================================
NAME = /tmp/34.inp
|  1> ! XTB2 opt numfreq
|  2> * XYZ 0 1
|  3> O 0.0811 1.3945 3.1541
|  4> C 0.1097 1.1953 1.9383
|  5> C 0.6548 -0.0989 1.3419
|  6> O 0.8092 -1.0045 2.4747
|  7> C 2.0361 0.2066 0.7568
|  8> O 2.5810 -0.9520 0.1462
|  9> P 3.7671 -0.7353 -0.9013
| 10> O 5.0015 -0.1141 -0.3480
| 11> O 3.0828 0.0594 -2.1004
| 12> O 4.0116 -2.1773 -1.5332
| 13> C -0.3172 -0.8356 0.3872
| 14> O -1.5451 -1.1245 1.1083
| 15> C -0.6496 -0.2695 -1.0195
| 16> O 0.4784 -0.3383 -1.9091
| 17> C -1.2440 1.1437 -1.0837
| 18> O -2.2122 1.3805 -0.0848
| 19> P -3.7206 0.9186 -0.3651
| 20> O -4.3365 1.4745 -1.6010
| 21> O -3.6608 -0.6704 -0.2945
| 22> O -4.5087 1.2832 0.9697
| 23> H -0.1848 1.9908 1.2403
| 24> H 1.0566 -0.4494 3.2452
| 25> H 2.7277 0.5180 1.5482
| 26> H 1.9718 1.0221 0.0280
| 27> H 2.1913 -0.3161 -2.2644
| 28> H 4.9170 -2.4776 -1.3290
| 29> H 0.1190 -1.8287 0.2064
| 30> H -1.2294 -1.4999 1.9636
| 31> H -1.4016 -0.9496 -1.4406
| 32> H 0.0936 -0.3375 -2.8117
| 33> H -1.6678 1.3264 -2.0790
| 34> H -0.4475 1.8886 -0.9751
| 35> H -3.0984 -0.9623 0.4629
| 36> H -5.4661 1.3394 0.7958
| 37> *
| 38> 
| 39>                          ****END OF INPUT****
================================================================================

                       *****************************
                       * Geometry Optimization Run *
                       *****************************

Geometry optimization settings:
Update method            Update   .... BFGS
Choice of coordinates    CoordSys .... Z-matrix Internals
Initial Hessian          InHess   .... Almoef's Model

Convergence Tolerances:
Energy Change            TolE     ....  5.0000e-06 Eh
Max. Gradient            TolMAXG  ....  3.0000e-04 Eh/bohr
RMS Gradient             TolRMSG  ....  1.0000e-04 Eh/bohr
Max. Displacement        TolMAXD  ....  4.0000e-03 bohr
RMS Displacement         TolRMSD  ....  2.0000e-03 bohr
Strict Convergence                ....  False
------------------------------------------------------------------------------
                        ORCA OPTIMIZATION COORDINATE SETUP
------------------------------------------------------------------------------

The optimization will be done in new redundant internal coordinates
Making redundant internal coordinates   ...  (new redundants) done
Evaluating the initial hessian          ...  (Almloef) done
Evaluating the coordinates              ...  done
Calculating the B-matrix                .... done
Calculating the G-matrix                .... done
Diagonalizing the G-matrix              .... done
Small eigenvalue found = 4.414e-03
Small eigenvalue found = 5.405e-03
Small eigenvalue found = 1.173e-02
Small eigenvalue found = 1.516e-02
Small eigenvalue found = 1.661e-02
Small eigenvalue found = 2.933e-02
The first mode is                       ....   66
The number of degrees of freedom        ....   96

    -----------------------------------------------------------------
                    Redundant Internal Coordinates


    -----------------------------------------------------------------
         Definition                    Initial Value    Approx d2E/dq
    -----------------------------------------------------------------
      1. B(C   1,O   0)                  1.2323         0.998637   
      2. B(C   2,C   1)                  1.5257         0.379514   
      3. B(O   3,C   2)                  1.4585         0.435119   
      4. B(C   4,C   2)                  1.5309         0.372338   
      5. B(O   5,C   4)                  1.4185         0.503997   
      6. B(P   6,O   5)                  1.5972         0.878607   
      7. B(O   7,P   6)                  1.4885         1.309614   
      8. B(O   8,P   6)                  1.5930         0.892263   
      9. B(O   9,P   6)                  1.5932         0.891454   
     10. B(C  10,C   2)                  1.5489         0.348570   
     11. B(O  11,C  10)                  1.4530         0.443992   
     12. B(C  12,C  10)                  1.5523         0.344138   
     13. B(O  13,C  12)                  1.4382         0.468735   
     14. B(C  14,C  12)                  1.5345         0.367504   
     15. B(O  15,C  14)                  1.4111         0.517803   
     16. B(P  16,O  15)                  1.6022         0.862473   
     17. B(O  17,P  16)                  1.4886         1.309561   
     18. B(O  18,P  16)                  1.5917         0.896569   
     19. B(O  19,P  16)                  1.5924         0.894250   
     20. B(H  20,C   1)                  1.0985         0.348999   
     21. B(H  21,O   3)                  0.9813         0.480765   
     22. B(H  22,C   4)                  1.0962         0.352026   
     23. B(H  23,C   4)                  1.0956         0.352777   
     24. B(H  24,O   8)                  0.9812         0.481075   
     25. B(H  25,O   9)                  0.9755         0.491152   
     26. B(H  26,C  10)                  1.0996         0.347572   
     27. B(H  27,O  11)                  0.9860         0.472649   
     28. B(H  28,C  12)                  1.0979         0.349811   
     29. B(H  29,O  13)                  0.9812         0.480994   
     30. B(H  30,C  14)                  1.0971         0.350841   
     31. B(H  31,C  14)                  1.0959         0.352329   
     32. B(H  32,O  18)                  0.9875         0.469996   
     33. B(H  33,O  19)                  0.9747         0.492646   
     34. A(C   2,C   1,H  20)          117.4953         0.323493   
     35. A(O   0,C   1,H  20)          120.2380         0.378496   
     36. A(O   0,C   1,C   2)          122.0772         0.430132   
     37. A(O   3,C   2,C   4)          108.9799         0.370438   
     38. A(C   1,C   2,C  10)          114.8474         0.360049   
     39. A(C   1,C   2,C   4)          107.6071         0.364126   
     40. A(C   1,C   2,O   3)          105.1242         0.371657   
     41. A(C   4,C   2,C  10)          115.1867         0.358880   
     42. A(O   3,C   2,C  10)          104.4685         0.366268   
     43. A(C   2,O   3,H  21)          106.5761         0.343903   
     44. A(C   2,C   4,O   5)          110.3728         0.379957   
     45. A(H  22,C   4,H  23)          107.8084         0.288874   
     46. A(O   5,C   4,H  22)          107.4844         0.337470   
     47. A(C   2,C   4,H  23)          110.4765         0.323051   
     48. A(O   5,C   4,H  23)          110.1312         0.337590   
     49. A(C   2,C   4,H  22)          110.4890         0.322939   
     50. A(C   4,O   5,P   6)          117.1783         0.469789   
     51. A(O   5,P   6,O   7)          115.3829         0.602574   
     52. A(O   7,P   6,O   9)          113.4448         0.604264   
     53. A(O   8,P   6,O   9)          102.6439         0.561401   
     54. A(O   7,P   6,O   8)          115.3299         0.604370   
     55. A(O   5,P   6,O   9)          104.5531         0.559755   
     56. A(O   5,P   6,O   8)          104.0253         0.559852   
     57. A(P   6,O   8,H  24)          108.9782         0.414899   
     58. A(P   6,O   9,H  25)          109.7565         0.416365   
     59. A(C  12,C  10,H  26)          105.3842         0.318144   
     60. A(O  11,C  10,H  26)          103.7246         0.329748   
     61. A(C   2,C  10,H  26)          106.3776         0.318808   
     62. A(O  11,C  10,C  12)          109.9547         0.366732   
     63. A(C   2,C  10,C  12)          121.2976         0.354112   
     64. A(C   2,C  10,O  11)          108.6028         0.367538   
     65. A(C  10,O  11,H  27)          103.6287         0.344086   
     66. A(C  14,C  12,H  28)          106.8061         0.321915   
     67. A(O  13,C  12,H  28)          105.6838         0.333076   
     68. A(C  10,C  12,H  28)          105.5651         0.318477   
     69. A(O  13,C  12,C  14)          108.7832         0.374374   
     70. A(C  10,C  12,C  14)          117.1754         0.357305   
     71. A(C  10,C  12,O  13)          112.0318         0.370162   
     72. A(C  12,O  13,H  29)          105.1513         0.348261   
     73. A(H  30,C  14,H  31)          104.9193         0.288665   
     74. A(C  12,C  14,H  31)          109.8954         0.322293   
     75. A(O  15,C  14,H  30)          110.4388         0.338804   
     76. A(C  12,C  14,H  30)          109.9357         0.322070   
     77. A(O  15,C  14,H  31)          108.3275         0.339043   
     78. A(C  12,C  14,O  15)          112.9987         0.380877   
     79. A(C  14,O  15,P  16)          118.2759         0.470522   
     80. A(O  18,P  16,O  19)          102.1218         0.562252   
     81. A(O  17,P  16,O  19)          113.9336         0.604625   
     82. A(O  15,P  16,O  19)          104.6716         0.558117   
     83. A(O  17,P  16,O  18)          115.1626         0.604927   
     84. A(O  15,P  16,O  18)          104.1621         0.558392   
     85. A(O  15,P  16,O  17)          115.2844         0.600420   
     86. A(P  16,O  18,H  32)          110.5187         0.413539   
     87. A(P  16,O  19,H  33)          110.4741         0.416822   
     88. D(C  10,C   2,C   1,O   0)    125.5716         0.010749   
     89. D(O   3,C   2,C   1,H  20)   -173.6522         0.010749   
     90. D(O   3,C   2,C   1,O   0)     11.3434         0.010749   
     91. D(C   4,C   2,C   1,O   0)   -104.7118         0.010749   
     92. D(C  10,C   2,C   1,H  20)    -59.4241         0.010749   
     93. D(C   4,C   2,C   1,H  20)     70.2925         0.010749   
     94. D(H  21,O   3,C   2,C  10)   -154.8328         0.014911   
     95. D(H  21,O   3,C   2,C   4)     81.5581         0.014911   
     96. D(H  21,O   3,C   2,C   1)    -33.5490         0.014911   
     97. D(H  22,C   4,C   2,O   3)    -50.3703         0.011074   
     98. D(O   5,C   4,C   2,O   3)     68.3738         0.011074   
     99. D(O   5,C   4,C   2,C   1)   -178.1340         0.011074   
    100. D(H  22,C   4,C   2,C   1)     63.1218         0.011074   
    101. D(H  22,C   4,C   2,C  10)   -167.3528         0.011074   
    102. D(H  23,C   4,C   2,C  10)     73.4352         0.011074   
    103. D(O   5,C   4,C   2,C  10)    -48.6087         0.011074   
    104. D(H  23,C   4,C   2,C   1)    -56.0901         0.011074   
    105. D(H  23,C   4,C   2,O   3)   -169.5823         0.011074   
    106. D(P   6,O   5,C   4,H  23)     38.8063         0.020092   
    107. D(P   6,O   5,C   4,H  22)    -78.3861         0.020092   
    108. D(P   6,O   5,C   4,C   2)    161.0535         0.020092   
    109. D(O   9,P   6,O   5,C   4)   -172.7429         0.013349   
    110. D(O   8,P   6,O   5,C   4)    -65.4087         0.013349   
    111. D(O   7,P   6,O   5,C   4)     61.9365         0.013349   
    112. D(H  24,O   8,P   6,O   9)     68.0824         0.013748   
    113. D(H  24,O   8,P   6,O   7)   -168.0476         0.013748   
    114. D(H  24,O   8,P   6,O   5)    -40.6696         0.013748   
    115. D(H  25,O   9,P   6,O   8)    133.8201         0.013724   
    116. D(H  25,O   9,P   6,O   7)      8.7063         0.013724   
    117. D(H  25,O   9,P   6,O   5)   -117.8285         0.013724   
    118. D(O  11,C  10,C   2,C   1)    -57.5611         0.009796   
    119. D(H  26,C  10,C   2,O   3)    -54.0420         0.009796   
    120. D(H  26,C  10,C   2,C   1)   -168.6516         0.009796   
    121. D(C  12,C  10,C   2,C   4)    -54.6856         0.009796   
    122. D(C  12,C  10,C   2,O   3)   -174.1924         0.009796   
    123. D(C  12,C  10,C   2,C   1)     71.1979         0.009796   
    124. D(O  11,C  10,C   2,C   4)    176.5553         0.009796   
    125. D(H  26,C  10,C   2,C   4)     65.4648         0.009796   
    126. D(O  11,C  10,C   2,O   3)     57.0485         0.009796   
    127. D(H  27,O  11,C  10,H  26)     65.9903         0.015524   
    128. D(H  27,O  11,C  10,C  12)    178.2747         0.015524   
    129. D(H  27,O  11,C  10,C   2)    -46.8684         0.015524   
    130. D(H  28,C  12,C  10,H  26)     62.9779         0.009569   
    131. D(H  28,C  12,C  10,O  11)    -48.2261         0.009569   
    132. D(H  28,C  12,C  10,C   2)   -176.3899         0.009569   
    133. D(C  14,C  12,C  10,H  26)   -178.3114         0.009569   
    134. D(C  14,C  12,C  10,O  11)     70.4846         0.009569   
    135. D(C  14,C  12,C  10,C   2)    -57.6792         0.009569   
    136. D(O  13,C  12,C  10,H  26)    -51.5697         0.009569   
    137. D(O  13,C  12,C  10,O  11)   -162.7736         0.009569   
    138. D(O  13,C  12,C  10,C   2)     69.0626         0.009569   
    139. D(H  29,O  13,C  12,H  28)     41.9086         0.017317   
    140. D(H  29,O  13,C  12,C  14)    -72.4661         0.017317   
    141. D(H  29,O  13,C  12,C  10)    156.3833         0.017317   
    142. D(H  31,C  14,C  12,O  13)    -48.8527         0.010806   
    143. D(H  31,C  14,C  12,C  10)     79.4629         0.010806   
    144. D(H  30,C  14,C  12,H  28)    -47.4997         0.010806   
    145. D(H  30,C  14,C  12,O  13)     66.1409         0.010806   
    146. D(H  30,C  14,C  12,C  10)   -165.5436         0.010806   
    147. D(O  15,C  14,C  12,H  28)     76.3827         0.010806   
    148. D(O  15,C  14,C  12,O  13)   -169.9768         0.010806   
    149. D(H  31,C  14,C  12,H  28)   -162.4932         0.010806   
    150. D(O  15,C  14,C  12,C  10)    -41.6612         0.010806   
    151. D(P  16,O  15,C  14,H  31)    153.5548         0.021250   
    152. D(P  16,O  15,C  14,H  30)     39.1687         0.021250   
    153. D(P  16,O  15,C  14,C  12)    -84.4368         0.021250   
    154. D(O  19,P  16,O  15,C  14)    177.8683         0.012887   
    155. D(O  18,P  16,O  15,C  14)     71.0141         0.012887   
    156. D(O  17,P  16,O  15,C  14)    -56.1552         0.012887   
    157. D(H  32,O  18,P  16,O  19)    -66.3737         0.013876   
    158. D(H  32,O  18,P  16,O  17)    169.6170         0.013876   
    159. D(H  32,O  18,P  16,O  15)     42.3722         0.013876   
    160. D(H  33,O  19,P  16,O  18)    -91.8099         0.013807   
    161. D(H  33,O  19,P  16,O  17)     33.0187         0.013807   
    162. D(H  33,O  19,P  16,O  15)    159.8346         0.013807   
    -----------------------------------------------------------------

Number of atoms                         .... 34
Number of degrees of freedom            .... 162

         *************************************************************
         *                GEOMETRY OPTIMIZATION CYCLE   1            *
         *************************************************************
---------------------------------
CARTESIAN COORDINATES (ANGSTROEM)
---------------------------------
  O     0.081100    1.394500    3.154100
  C     0.109700    1.195300    1.938300
  C     0.654800   -0.098900    1.341900
  O     0.809200   -1.004500    2.474700
  C     2.036100    0.206600    0.756800
  O     2.581000   -0.952000    0.146200
  P     3.767100   -0.735300   -0.901300
  O     5.001500   -0.114100   -0.348000
  O     3.082800    0.059400   -2.100400
  O     4.011600   -2.177300   -1.533200
  C    -0.317200   -0.835600    0.387200
  O    -1.545100   -1.124500    1.108300
  C    -0.649600   -0.269500   -1.019500
  O     0.478400   -0.338300   -1.909100
  C    -1.244000    1.143700   -1.083700
  O    -2.212200    1.380500   -0.084800
  P    -3.720600    0.918600   -0.365100
  O    -4.336500    1.474500   -1.601000
  O    -3.660800   -0.670400   -0.294500
  O    -4.508700    1.283200    0.969700
  H    -0.184800    1.990800    1.240300
  H     1.056600   -0.449400    3.245200
  H     2.727700    0.518000    1.548200
  H     1.971800    1.022100    0.028000
  H     2.191300   -0.316100   -2.264400
  H     4.917000   -2.477600   -1.329000
  H     0.119000   -1.828700    0.206400
  H    -1.229400   -1.499900    1.963600
  H    -1.401600   -0.949600   -1.440600
  H     0.093600   -0.337500   -2.811700
  H    -1.667800    1.326400   -2.079000
  H    -0.447500    1.888600   -0.975100
  H    -3.098400   -0.962300    0.462900
  H    -5.466100    1.339400    0.795800

----------------------------
CARTESIAN COORDINATES (A.U.)
----------------------------
  NO LB    ZA    FRAG    MASS        X           Y           Z
   0 O   8.0000    0    15.999    0.153257    2.635223    5.960385
   1 C   6.0000    0    12.011    0.207303    2.258790    3.662856
   2 C   6.0000    0    12.011    1.237393   -0.186894    2.535823
   3 O   8.0000    0    15.999    1.529166   -1.898230    4.676505
   4 C   6.0000    0    12.011    3.847671    0.390417    1.430145
   5 O   8.0000    0    15.999    4.877383   -1.799019    0.276278
   6 P  15.0000    0    30.974    7.118787   -1.389516   -1.703210
   7 O   8.0000    0    15.999    9.451465   -0.215618   -0.657625
   8 O   8.0000    0    15.999    5.825648    0.112250   -3.969181
   9 O   8.0000    0    15.999    7.580825   -4.114501   -2.897328
  10 C   6.0000    0    12.011   -0.599421   -1.579055    0.731702
  11 O   8.0000    0    15.999   -2.919816   -2.124997    2.094383
  12 C   6.0000    0    12.011   -1.227566   -0.509281   -1.926576
  13 O   8.0000    0    15.999    0.904045   -0.639294   -3.607676
  14 C   6.0000    0    12.011   -2.350819    2.161280   -2.047896
  15 O   8.0000    0    15.999   -4.180452    2.608767   -0.160249
  16 P  15.0000    0    30.974   -7.030915    1.735902   -0.689939
  17 O   8.0000    0    15.999   -8.194797    2.786401   -3.025452
  18 O   8.0000    0    15.999   -6.917909   -1.266872   -0.556524
  19 O   8.0000    0    15.999   -8.520208    2.424897    1.832467
  20 H   1.0000    0     1.008   -0.349221    3.762067    2.343827
  21 H   1.0000    0     1.008    1.996685   -0.849243    6.132539
  22 H   1.0000    0     1.008    5.154606    0.978878    2.925674
  23 H   1.0000    0     1.008    3.726162    1.931489    0.052912
  24 H   1.0000    0     1.008    4.140957   -0.597342   -4.279096
  25 H   1.0000    0     1.008    9.291783   -4.681985   -2.511446
  26 H   1.0000    0     1.008    0.224877   -3.455742    0.390039
  27 H   1.0000    0     1.008   -2.323229   -2.834400    3.710666
  28 H   1.0000    0     1.008   -2.648640   -1.794484   -2.722339
  29 H   1.0000    0     1.008    0.176878   -0.637783   -5.313343
  30 H   1.0000    0     1.008   -3.151685    2.506533   -3.928741
  31 H   1.0000    0     1.008   -0.845652    3.568937   -1.842672
  32 H   1.0000    0     1.008   -5.855127   -1.818483    0.874754
  33 H   1.0000    0     1.008  -10.329432    2.531099    1.503844

      -----------------------------------------------------------      
     |                   =====================                   |     
     |                           x T B                           |     
     |                   =====================                   |     
     |                         S. Grimme                         |     
     |          Mulliken Center for Theoretical Chemistry        |     
     |                    University of Bonn                     |     
      -----------------------------------------------------------      

   * xtb version 6.5.1 (579679a) compiled by 'ehlert@majestix' on 2022-07-11

   xtb is free software: you can redistribute it and/or modify it under
   the terms of the GNU Lesser General Public License as published by
   the Free Software Foundation, either version 3 of the License, or
   (at your option) any later version.
   
   xtb is distributed in the hope that it will be useful,
   but WITHOUT ANY WARRANTY; without even the implied warranty of
   MERCHANTABILITY or FITNESS FOR A PARTICULAR PURPOSE.  See the
   GNU Lesser General Public License for more details.
   
   Cite this work as:
   * C. Bannwarth, E. Caldeweyher, S. Ehlert, A. Hansen, P. Pracht,
     J. Seibert, S. Spicher, S. Grimme, WIREs Comput. Mol. Sci., 2020, 11,
     e01493. DOI: 10.1002/wcms.1493
   
   for GFN2-xTB:
   * C. Bannwarth, S. Ehlert and S. Grimme., J. Chem. Theory Comput., 2019,
     15, 1652-1671. DOI: 10.1021/acs.jctc.8b01176
   for GFN1-xTB:
   * S. Grimme, C. Bannwarth, P. Shushkov, J. Chem. Theory Comput., 2017,
     13, 1989-2009. DOI: 10.1021/acs.jctc.7b00118
   for GFN0-xTB:
   * P. Pracht, E. Caldeweyher, S. Ehlert, S. Grimme, ChemRxiv, 2019, preprint.
     DOI: 10.26434/chemrxiv.8326202.v1
   for GFN-FF:
   * S. Spicher and S. Grimme, Angew. Chem. Int. Ed., 2020, 59, 15665-15673.
     DOI: 10.1002/anie.202004239
   
   for ALPB and GBSA implicit solvation:
   * S. Ehlert, M. Stahn, S. Spicher, S. Grimme, J. Chem. Theory Comput.,
     2021, 17, 4250-4261. DOI: 10.1021/acs.jctc.1c00471
   
   for DFT-D4:
   * E. Caldeweyher, C. Bannwarth and S. Grimme, J. Chem. Phys., 2017,
     147, 034112. DOI: 10.1063/1.4993215
   * E. Caldeweyher, S. Ehlert, A. Hansen, H. Neugebauer, S. Spicher,
     C. Bannwarth and S. Grimme, J. Chem. Phys., 2019, 150, 154122.
     DOI: 10.1063/1.5090222
   * E. Caldeweyher, J.-M. Mewes, S. Ehlert and S. Grimme, Phys. Chem. Chem. Phys.
     2020, 22, 8499-8512. DOI: 10.1039/D0CP00502A
   
   for sTDA-xTB:
   * S. Grimme and C. Bannwarth, J. Chem. Phys., 2016, 145, 054103.
     DOI: 10.1063/1.4959605
   
   in the mass-spec context:
   * V. Asgeirsson, C. Bauer and S. Grimme, Chem. Sci., 2017, 8, 4879.
     DOI: 10.1039/c7sc00601b
   * J. Koopman and S. Grimme, ACS Omega 2019, 4, 12, 15120-15133.
     DOI: 10.1021/acsomega.9b02011
   
   for metadynamics refer to:
   * S. Grimme, J. Chem. Theory Comput., 2019, 155, 2847-2862
     DOI: 10.1021/acs.jctc.9b00143
   
   for SPH calculations refer to:
   * S. Spicher and S. Grimme, J. Chem. Theory Comput., 2021, 17, 1701-1714
     DOI: 10.1021/acs.jctc.0c01306
   
   with help from (in alphabetical order)
   P. Atkinson, C. Bannwarth, F. Bohle, G. Brandenburg, E. Caldeweyher
   M. Checinski, S. Dohm, S. Ehlert, S. Ehrlich, I. Gerasimov, C. Hölzer
   A. Katbashev, J. Koopman, C. Lavigne, S. Lehtola, F. März, M. Müller,
   F. Musil, H. Neugebauer, J. Pisarek, C. Plett, P. Pracht, F. Pultar,
   J. Seibert, P. Shushkov, S. Spicher, M. Stahn, M. Steiner, T. Strunk,
   J. Stückrath, T. Rose, and J. Unsleber
   
 * started run on 2023/12/07 at 00:28:50.584     

           -------------------------------------------------
          |                Calculation Setup                |
           -------------------------------------------------

          program call               : otool_xtb /tmp/34_XTB.xyz --grad -c 0 -u 0 -P 1 --namespace /tmp/34 --input /tmp/34_XTB.input.tmp --acc 1.000000
          calculation namespace      : /tmp/34
          coordinate file            : /tmp/34_XTB.xyz
          omp threads                :                     1

   ID    Z sym.   atoms
    1    8 O      1, 4, 6, 8-10, 12, 14, 16, 18-20
    2    6 C      2, 3, 5, 11, 13, 15
    3   15 P      7, 17
    4    1 H      21-34

           -------------------------------------------------
          |                 G F N 2 - x T B                 |
           -------------------------------------------------

        Reference                      10.1021/acs.jctc.8b01176
      * Hamiltonian:
        H0-scaling (s, p, d)           1.850000    2.230000    2.230000
        zeta-weighting                 0.500000
      * Dispersion:
        s8                             2.700000
        a1                             0.520000
        a2                             5.000000
        s9                             5.000000
      * Repulsion:
        kExp                           1.500000    1.000000
        rExp                           1.000000
      * Coulomb:
        alpha                          2.000000
        third order                    shell-resolved
        anisotropic                    true
        a3                             3.000000
        a5                             4.000000
        cn-shift                       1.200000
        cn-exp                         4.000000
        max-rad                        5.000000


          ...................................................
          :                      SETUP                      :
          :.................................................:
          :  # basis functions                 106          :
          :  # atomic orbitals                 104          :
          :  # shells                           56          :
          :  # electrons                       120          :
          :  max. iterations                   250          :
          :  Hamiltonian                  GFN2-xTB          :
          :  restarted?                      false          :
          :  GBSA solvation                  false          :
          :  PC potential                    false          :
          :  electronic temp.          300.0000000     K    :
          :  accuracy                    1.0000000          :
          :  -> integral cutoff          0.2500000E+02      :
          :  -> integral neglect         0.1000000E-07      :
          :  -> SCF convergence          0.1000000E-05 Eh   :
          :  -> wf. convergence          0.1000000E-03 e    :
          :  Broyden damping             0.4000000          :
          ...................................................

 iter      E             dE          RMSdq      gap      omega  full diag
   1    -74.3589600 -0.743590E+02  0.740E+00    3.96       0.0  T
   2    -74.4752131 -0.116253E+00  0.420E+00    3.05       1.0  T
   3    -74.4861665 -0.109533E-01  0.148E+00    3.21       1.0  T
   4    -74.5086024 -0.224360E-01  0.661E-01    2.79       1.0  T
   5    -74.5106535 -0.205103E-02  0.278E-01    3.10       1.0  T
   6    -74.5110656 -0.412130E-03  0.102E-01    3.04       1.0  T
   7    -74.5110864 -0.207738E-04  0.347E-02    3.06       1.0  T
   8    -74.5110945 -0.817370E-05  0.127E-02    3.05       1.3  T
   9    -74.5110949 -0.365602E-06  0.559E-03    3.05       3.1  T
  10    -74.5110952 -0.277440E-06  0.167E-03    3.06      10.3  T
  11    -74.5110952 -0.121920E-07  0.553E-04    3.06      31.0  T
  12    -74.5110952 -0.319504E-08  0.194E-04    3.06      88.4  T

   *** convergence criteria satisfied after 12 iterations ***

         #    Occupation            Energy/Eh            Energy/eV
      -------------------------------------------------------------
         1        2.0000           -0.7590590             -20.6550
       ...           ...                  ...                  ...
        54        2.0000           -0.4653363             -12.6624
        55        2.0000           -0.4519761             -12.2989
        56        2.0000           -0.4453667             -12.1190
        57        2.0000           -0.4385918             -11.9347
        58        2.0000           -0.4383227             -11.9274
        59        2.0000           -0.4379895             -11.9183
        60        2.0000           -0.4342111             -11.8155 (HOMO)
        61                         -0.3219166              -8.7598 (LUMO)
        62                         -0.1171865              -3.1888
        63                         -0.0928344              -2.5262
        64                         -0.0864514              -2.3525
        65                         -0.0658963              -1.7931
       ...                                ...                  ...
       104                          1.2673119              34.4853
      -------------------------------------------------------------
                  HL-Gap            0.1122945 Eh            3.0557 eV
             Fermi-level           -0.3780639 Eh          -10.2876 eV

 SCC (total)                   0 d,  0 h,  0 min,  0.056 sec
 SCC setup                      ...        0 min,  0.000 sec (  0.450%)
 Dispersion                     ...        0 min,  0.000 sec (  0.546%)
 classical contributions        ...        0 min,  0.000 sec (  0.121%)
 integral evaluation            ...        0 min,  0.008 sec ( 14.759%)
 iterations                     ...        0 min,  0.022 sec ( 39.352%)
 molecular gradient             ...        0 min,  0.025 sec ( 44.311%)
 printout                       ...        0 min,  0.000 sec (  0.425%)

         :::::::::::::::::::::::::::::::::::::::::::::::::::::
         ::                     SUMMARY                     ::
         :::::::::::::::::::::::::::::::::::::::::::::::::::::
         :: total energy             -74.071023002604 Eh    ::
         :: gradient norm              0.125712723936 Eh/a0 ::
         :: HOMO-LUMO gap              3.055688425711 eV    ::
         ::.................................................::
         :: SCC energy               -74.511095194172 Eh    ::
         :: -> isotropic ES            0.310814722679 Eh    ::
         :: -> anisotropic ES         -0.013921446460 Eh    ::
         :: -> anisotropic XC         -0.002817191645 Eh    ::
         :: -> dispersion             -0.037027068103 Eh    ::
         :: repulsion energy           0.439525044364 Eh    ::
         :: add. restraining           0.000000000000 Eh    ::
         :: total charge              -0.000000000000 e     ::
         :::::::::::::::::::::::::::::::::::::::::::::::::::::


Property printout bound to 'properties.out'

           -------------------------------------------------
          | TOTAL ENERGY              -74.071023002604 Eh   |
          | GRADIENT NORM               0.125712723936 Eh/α |
          | HOMO-LUMO GAP               3.055688425711 eV   |
           -------------------------------------------------

------------------------------------------------------------------------
 * finished run on 2023/12/07 at 00:28:50.655     
------------------------------------------------------------------------
 total:
 * wall-time:     0 d,  0 h,  0 min,  0.071 sec
 *  cpu-time:     0 d,  0 h,  0 min,  0.068 sec
 * ratio c/w:     0.955 speedup
 SCF:
 * wall-time:     0 d,  0 h,  0 min,  0.056 sec
 *  cpu-time:     0 d,  0 h,  0 min,  0.056 sec
 * ratio c/w:     1.005 speedup


-------------------------   --------------------
FINAL SINGLE POINT ENERGY       -74.071023002600
-------------------------   --------------------

------------------------------------------------------------------------------
                         ORCA GEOMETRY RELAXATION STEP
------------------------------------------------------------------------------

Reading the OPT-File                    .... done
Getting information on internals        .... done
Copying old internal coords+grads       .... done
Making the new internal coordinates     .... (new redundants).... done
Validating the new internal coordinates .... (new redundants).... done
Calculating the B-matrix                .... done
Calculating the G,G- and P matrices     .... done
Transforming gradient to internals      .... done
Projecting the internal gradient        .... done
Number of atoms                         ....  34
Number of internal coordinates          .... 162
Current Energy                          ....   -74.071023003 Eh
Current gradient norm                   ....     0.125712724 Eh/bohr
Maximum allowed component of the step   ....  0.300
Current trust radius                    ....  0.300
Evaluating the initial hessian          ....  (Almloef) done
Projecting the Hessian                  .... done
Forming the augmented Hessian           .... done
Diagonalizing the augmented Hessian     .... done
Last element of RFO vector              ....  0.862792864
Lowest eigenvalues of augmented Hessian:
 -0.039156074  0.009651568  0.009947949  0.010749685  0.011070530
Length of the computed step             ....  0.585954761
Warning: the length of the step is outside the trust region - taking restricted step instead
The input lambda is                     ....    -0.039156
   iter:   1  x=   -0.063577  g=   10.374020 f(x)=     0.253343
   iter:   2  x=   -0.090466  g=    3.721710 f(x)=     0.100074
   iter:   3  x=   -0.109636  g=    1.687696 f(x)=     0.032353
   iter:   4  x=   -0.115454  g=    1.088899 f(x)=     0.006335
   iter:   5  x=   -0.115829  g=    0.967569 f(x)=     0.000363
   iter:   6  x=   -0.115830  g=    0.960425 f(x)=     0.000001
   iter:   7  x=   -0.115830  g=    0.960399 f(x)=     0.000000
   iter:   8  x=   -0.115830  g=    0.960399 f(x)=     0.000000
The output lambda is                    ....    -0.115830 (8 iterations)
The final length of the internal step   ....  0.300000000
Converting the step to cartesian space:
 Initial RMS(Int)=    0.0235702260
Transforming coordinates:
 Iter   0:  RMS(Cart)=    0.1892278358 RMS(Int)=    0.0232880382
 Iter   1:  RMS(Cart)=    0.0089232457 RMS(Int)=    0.0038300809
 Iter   2:  RMS(Cart)=    0.0009086027 RMS(Int)=    0.0001521787
 Iter   3:  RMS(Cart)=    0.0001000559 RMS(Int)=    0.0000500607
 Iter   4:  RMS(Cart)=    0.0000114485 RMS(Int)=    0.0000022663
 Iter   5:  RMS(Cart)=    0.0000013597 RMS(Int)=    0.0000006975
 Iter   6:  RMS(Cart)=    0.0000001603 RMS(Int)=    0.0000000365
 Iter   7:  RMS(Cart)=    0.0000000197 RMS(Int)=    0.0000000101
done
Storing new coordinates                 .... done

                                .--------------------.
          ----------------------|Geometry convergence|-------------------------
          Item                value                   Tolerance       Converged
          ---------------------------------------------------------------------
          RMS gradient        0.0090503720            0.0001000000      NO
          MAX gradient        0.0504942419            0.0003000000      NO
          RMS step            0.0235702260            0.0020000000      NO
          MAX step            0.0926585342            0.0040000000      NO
          ........................................................
          Max(Bonds)      0.0240      Max(Angles)    2.51
          Max(Dihed)        5.31      Max(Improp)    0.00
          ---------------------------------------------------------------------

The optimization has not yet converged - more geometry cycles are needed


    ---------------------------------------------------------------------------
                         Redundant Internal Coordinates
                            (Angstroem and degrees)

        Definition                    Value    dE/dq     Step     New-Value
    ----------------------------------------------------------------------------
     1. B(C   1,O   0)                1.2323  0.050494 -0.0240    1.2084   
     2. B(C   2,C   1)                1.5257  0.002256 -0.0024    1.5233   
     3. B(O   3,C   2)                1.4585  0.021830 -0.0210    1.4375   
     4. B(C   4,C   2)                1.5309 -0.006523  0.0071    1.5380   
     5. B(O   5,C   4)                1.4185  0.006868 -0.0059    1.4126   
     6. B(P   6,O   5)                1.5972 -0.010036  0.0053    1.6025   
     7. B(O   7,P   6)                1.4885  0.033468 -0.0124    1.4761   
     8. B(O   8,P   6)                1.5930  0.006779 -0.0036    1.5894   
     9. B(O   9,P   6)                1.5932  0.003942 -0.0021    1.5912   
    10. B(C  10,C   2)                1.5489  0.004850 -0.0055    1.5433   
    11. B(O  11,C  10)                1.4530  0.023047 -0.0218    1.4312   
    12. B(C  12,C  10)                1.5523  0.006730 -0.0077    1.5446   
    13. B(O  13,C  12)                1.4382  0.012992 -0.0118    1.4265   
    14. B(C  14,C  12)                1.5345 -0.005286  0.0058    1.5402   
    15. B(O  15,C  14)                1.4111  0.007841 -0.0065    1.4046   
    16. B(P  16,O  15)                1.6022 -0.007909  0.0043    1.6065   
    17. B(O  17,P  16)                1.4886  0.033311 -0.0124    1.4762   
    18. B(O  18,P  16)                1.5917  0.001474 -0.0008    1.5909   
    19. B(O  19,P  16)                1.5924  0.002133 -0.0011    1.5913   
    20. B(H  20,C   1)                1.0985  0.002911 -0.0033    1.0952   
    21. B(H  21,O   3)                0.9813  0.009591 -0.0085    0.9728   
    22. B(H  22,C   4)                1.0962  0.000250 -0.0003    1.0959   
    23. B(H  23,C   4)                1.0956 -0.000421  0.0005    1.0961   
    24. B(H  24,O   8)                0.9812  0.014375 -0.0127    0.9684   
    25. B(H  25,O   9)                0.9755  0.016259 -0.0142    0.9613   
    26. B(H  26,C  10)                1.0996 -0.001181  0.0013    1.1010   
    27. B(H  27,O  11)                0.9860  0.011850 -0.0107    0.9753   
    28. B(H  28,C  12)                1.0979 -0.001426  0.0016    1.0995   
    29. B(H  29,O  13)                0.9812  0.013480 -0.0120    0.9693   
    30. B(H  30,C  14)                1.0971 -0.001005  0.0011    1.0982   
    31. B(H  31,C  14)                1.0959 -0.001219  0.0014    1.0973   
    32. B(H  32,O  18)                0.9875  0.014682 -0.0133    0.9742   
    33. B(H  33,O  19)                0.9747  0.016335 -0.0142    0.9605   
    34. A(C   2,C   1,H  20)          117.50 -0.000936    0.11    117.61   
    35. A(O   0,C   1,H  20)          120.24 -0.004198    0.48    120.72   
    36. A(O   0,C   1,C   2)          122.08  0.005011   -0.53    121.55   
    37. A(O   3,C   2,C   4)          108.98  0.002822   -0.40    108.58   
    38. A(C   1,C   2,C  10)          114.85  0.006383   -1.06    113.79   
    39. A(C   1,C   2,C   4)          107.61  0.006061   -0.67    106.93   
    40. A(C   1,C   2,O   3)          105.12 -0.007974    1.11    106.23   
    41. A(C   4,C   2,C  10)          115.19 -0.015558    2.51    117.70   
    42. A(O   3,C   2,C  10)          104.47  0.008663   -1.59    102.88   
    43. A(C   2,O   3,H  21)          106.58 -0.001018    0.13    106.70   
    44. A(C   2,C   4,O   5)          110.37 -0.004562    0.57    110.95   
    45. A(H  22,C   4,H  23)          107.81 -0.001577    0.16    107.97   
    46. A(O   5,C   4,H  22)          107.48 -0.000694   -0.15    107.34   
    47. A(C   2,C   4,H  23)          110.48 -0.005487    1.03    111.50   
    48. A(O   5,C   4,H  23)          110.13  0.002224    0.08    110.21   
    49. A(C   2,C   4,H  22)          110.49  0.010385   -1.74    108.75   
    50. A(C   4,O   5,P   6)          117.18  0.003324   -0.33    116.85   
    51. A(O   5,P   6,O   7)          115.38  0.000843   -0.28    115.10   
    52. A(O   7,P   6,O   9)          113.44 -0.005114    0.38    113.82   
    53. A(O   8,P   6,O   9)          102.64 -0.008449    1.00    103.65   
    54. A(O   7,P   6,O   8)          115.33  0.006854   -0.44    114.89   
    55. A(O   5,P   6,O   9)          104.55  0.016351   -1.74    102.81   
    56. A(O   5,P   6,O   8)          104.03 -0.010867    1.15    105.18   
    57. A(P   6,O   8,H  24)          108.98 -0.001323    0.14    109.12   
    58. A(P   6,O   9,H  25)          109.76  0.003275   -0.35    109.40   
    59. A(C  12,C  10,H  26)          105.38  0.001383    0.24    105.62   
    60. A(O  11,C  10,H  26)          103.72 -0.005250    1.04    104.76   
    61. A(C   2,C  10,H  26)          106.38  0.001776   -0.16    106.22   
    62. A(O  11,C  10,C  12)          109.95 -0.001003   -0.03    109.93   
    63. A(C   2,C  10,C  12)          121.30 -0.008373    0.96    122.26   
    64. A(C   2,C  10,O  11)          108.60  0.011195   -1.87    106.73   
    65. A(C  10,O  11,H  27)          103.63 -0.002614    0.33    103.95   
    66. A(C  14,C  12,H  28)          106.81 -0.001735    0.76    107.57   
    67. A(O  13,C  12,H  28)          105.68 -0.002921    0.60    106.28   
    68. A(C  10,C  12,H  28)          105.57  0.000474    0.14    105.71   
    69. A(O  13,C  12,C  14)          108.78  0.000656   -0.32    108.46   
    70. A(C  10,C  12,C  14)          117.18 -0.003910    0.37    117.55   
    71. A(C  10,C  12,O  13)          112.03  0.006923   -1.36    110.67   
    72. A(C  12,O  13,H  29)          105.15 -0.006165    0.76    105.91   
    73. A(H  30,C  14,H  31)          104.92 -0.004765    0.76    105.68   
    74. A(C  12,C  14,H  31)          109.90  0.008775   -1.15    108.74   
    75. A(O  15,C  14,H  30)          110.44  0.009142   -1.25    109.19   
    76. A(C  12,C  14,H  30)          109.94 -0.000971    0.21    110.15   
    77. A(O  15,C  14,H  31)          108.33  0.001105   -0.08    108.25   
    78. A(C  12,C  14,O  15)          113.00 -0.012541    1.44    114.44   
    79. A(C  14,O  15,P  16)          118.28  0.011615   -1.13    117.14   
    80. A(O  18,P  16,O  19)          102.12 -0.014591    1.75    103.87   
    81. A(O  17,P  16,O  19)          113.93 -0.006785    0.43    114.36   
    82. A(O  15,P  16,O  19)          104.67  0.023489   -2.45    102.22   
    83. A(O  17,P  16,O  18)          115.16  0.012761   -0.97    114.20   
    84. A(O  15,P  16,O  18)          104.16 -0.018286    1.99    106.15   
    85. A(O  15,P  16,O  17)          115.28  0.001959   -0.54    114.74   
    86. A(P  16,O  18,H  32)          110.52 -0.001422    0.15    110.67   
    87. A(P  16,O  19,H  33)          110.47  0.005952   -0.64    109.83   
    88. D(C  10,C   2,C   1,O   0)    125.57  0.007079   -1.51    124.06   
    89. D(O   3,C   2,C   1,H  20)   -173.65 -0.003475    1.09   -172.56   
    90. D(O   3,C   2,C   1,O   0)     11.34 -0.001625    0.25     11.60   
    91. D(C   4,C   2,C   1,O   0)   -104.71 -0.003747    0.48   -104.23   
    92. D(C  10,C   2,C   1,H  20)    -59.42  0.005228   -0.67    -60.09   
    93. D(C   4,C   2,C   1,H  20)     70.29 -0.005597    1.32     71.61   
    94. D(H  21,O   3,C   2,C  10)   -154.83 -0.007657    1.60   -153.24   
    95. D(H  21,O   3,C   2,C   4)     81.56  0.004223   -0.24     81.32   
    96. D(H  21,O   3,C   2,C   1)    -33.55 -0.000024    0.16    -33.39   
    97. D(H  22,C   4,C   2,O   3)    -50.37  0.002466   -0.42    -50.79   
    98. D(O   5,C   4,C   2,O   3)     68.37  0.005260   -1.33     67.04   
    99. D(O   5,C   4,C   2,C   1)   -178.13  0.000455   -0.58   -178.72   
   100. D(H  22,C   4,C   2,C   1)     63.12 -0.002339    0.33     63.45   
   101. D(H  22,C   4,C   2,C  10)   -167.35 -0.000788    0.31   -167.05   
   102. D(H  23,C   4,C   2,C  10)     73.44 -0.001946    0.56     74.00   
   103. D(O   5,C   4,C   2,C  10)    -48.61  0.002006   -0.61    -49.22   
   104. D(H  23,C   4,C   2,C   1)    -56.09 -0.003497    0.59    -55.50   
   105. D(H  23,C   4,C   2,O   3)   -169.58  0.001308   -0.16   -169.75   
   106. D(P   6,O   5,C   4,H  23)     38.81 -0.007290    3.58     42.39   
   107. D(P   6,O   5,C   4,H  22)    -78.39 -0.006213    3.44    -74.95   
   108. D(P   6,O   5,C   4,C   2)    161.05 -0.015751    5.31    166.36   
   109. D(O   9,P   6,O   5,C   4)   -172.74  0.002162    0.45   -172.29   
   110. D(O   8,P   6,O   5,C   4)    -65.41 -0.005233    1.35    -64.06   
   111. D(O   7,P   6,O   5,C   4)     61.94 -0.004330    1.49     63.42   
   112. D(H  24,O   8,P   6,O   9)     68.08  0.005839   -0.37     67.71   
   113. D(H  24,O   8,P   6,O   7)   -168.05 -0.002627    0.56   -167.49   
   114. D(H  24,O   8,P   6,O   5)    -40.67 -0.005448    0.80    -39.87   
   115. D(H  25,O   9,P   6,O   8)    133.82  0.002098    0.19    134.01   
   116. D(H  25,O   9,P   6,O   7)      8.71  0.002411   -0.17      8.54   
   117. D(H  25,O   9,P   6,O   5)   -117.83 -0.007330    1.23   -116.60   
   118. D(O  11,C  10,C   2,C   1)    -57.56  0.001181   -0.10    -57.66   
   119. D(H  26,C  10,C   2,O   3)    -54.04  0.000336   -0.56    -54.61   
   120. D(H  26,C  10,C   2,C   1)   -168.65  0.001371   -0.38   -169.03   
   121. D(C  12,C  10,C   2,C   4)    -54.69  0.003399   -1.58    -56.26   
   122. D(C  12,C  10,C   2,O   3)   -174.19  0.002706   -1.41   -175.60   
   123. D(C  12,C  10,C   2,C   1)     71.20  0.003740   -1.22     69.97   
   124. D(O  11,C  10,C   2,C   4)    176.56  0.000840   -0.46    176.10   
   125. D(H  26,C  10,C   2,C   4)     65.46  0.001029   -0.73     64.73   
   126. D(O  11,C  10,C   2,O   3)     57.05  0.000147   -0.28     56.76   
   127. D(H  27,O  11,C  10,H  26)     65.99  0.001242   -0.15     65.84   
   128. D(H  27,O  11,C  10,C  12)    178.27 -0.000179    0.62    178.90   
   129. D(H  27,O  11,C  10,C   2)    -46.87 -0.002864    0.31    -46.56   
   130. D(H  28,C  12,C  10,H  26)     62.98 -0.001619    0.68     63.65   
   131. D(H  28,C  12,C  10,O  11)    -48.23  0.004169   -0.62    -48.85   
   132. D(H  28,C  12,C  10,C   2)   -176.39 -0.003704    1.31   -175.07   
   133. D(C  14,C  12,C  10,H  26)   -178.31 -0.005820    1.97   -176.34   
   134. D(C  14,C  12,C  10,O  11)     70.48 -0.000033    0.67     71.16   
   135. D(C  14,C  12,C  10,C   2)    -57.68 -0.007906    2.61    -55.07   
   136. D(O  13,C  12,C  10,H  26)    -51.57 -0.001827    0.55    -51.02   
   137. D(O  13,C  12,C  10,O  11)   -162.77  0.003960   -0.74   -163.52   
   138. D(O  13,C  12,C  10,C   2)     69.06 -0.003913    1.19     70.26   
   139. D(H  29,O  13,C  12,H  28)     41.91 -0.002439    0.66     42.57   
   140. D(H  29,O  13,C  12,C  14)    -72.47  0.000720   -0.36    -72.83   
   141. D(H  29,O  13,C  12,C  10)    156.38 -0.000138    0.50    156.88   
   142. D(H  31,C  14,C  12,O  13)    -48.85 -0.000146   -0.69    -49.54   
   143. D(H  31,C  14,C  12,C  10)     79.46  0.006889   -2.59     76.88   
   144. D(H  30,C  14,C  12,H  28)    -47.50  0.002494   -1.23    -48.73   
   145. D(H  30,C  14,C  12,O  13)     66.14 -0.001453   -0.31     65.83   
   146. D(H  30,C  14,C  12,C  10)   -165.54  0.005583   -2.21   -167.75   
   147. D(O  15,C  14,C  12,H  28)     76.38  0.004632   -1.66     74.72   
   148. D(O  15,C  14,C  12,O  13)   -169.98  0.000685   -0.74   -170.72   
   149. D(H  31,C  14,C  12,H  28)   -162.49  0.003801   -1.61   -164.10   
   150. D(O  15,C  14,C  12,C  10)    -41.66  0.007721   -2.64    -44.30   
   151. D(P  16,O  15,C  14,H  31)    153.55  0.010092   -4.50    149.05   
   152. D(P  16,O  15,C  14,H  30)     39.17  0.010288   -4.70     34.47   
   153. D(P  16,O  15,C  14,C  12)    -84.44  0.013784   -5.08    -89.52   
   154. D(O  19,P  16,O  15,C  14)    177.87 -0.006155    0.19    178.06   
   155. D(O  18,P  16,O  15,C  14)     71.01  0.008081   -1.57     69.45   
   156. D(O  17,P  16,O  15,C  14)    -56.16  0.004564   -1.51    -57.67   
   157. D(H  32,O  18,P  16,O  19)    -66.37 -0.007822    0.49    -65.88   
   158. D(H  32,O  18,P  16,O  17)    169.62  0.003665   -0.73    168.88   
   159. D(H  32,O  18,P  16,O  15)     42.37  0.006826   -0.94     41.44   
   160. D(H  33,O  19,P  16,O  18)    -91.81 -0.004698   -0.18    -91.99   
   161. D(H  33,O  19,P  16,O  17)     33.02 -0.002893    0.07     33.09   
   162. D(H  33,O  19,P  16,O  15)    159.83  0.012762   -2.18    157.66   
    ----------------------------------------------------------------------------

         *************************************************************
         *                GEOMETRY OPTIMIZATION CYCLE   2            *
         *************************************************************
---------------------------------
CARTESIAN COORDINATES (ANGSTROEM)
---------------------------------
  O     0.109714    1.349015    3.067387
  C     0.122871    1.151789    1.875297
  C     0.684086   -0.136293    1.286812
  O     0.869288   -1.035639    2.392860
  C     2.062361    0.204408    0.695506
  O     2.650103   -0.932412    0.097427
  P     3.917755   -0.678352   -0.849488
  O     5.100667   -0.110806   -0.173065
  O     3.363922    0.184273   -2.064181
  O     4.171184   -2.111967   -1.491647
  C    -0.313972   -0.896775    0.388245
  O    -1.466698   -1.169328    1.191544
  C    -0.749779   -0.363774   -0.994420
  O     0.326240   -0.445115   -1.927361
  C    -1.341856    1.056807   -1.055694
  O    -2.275163    1.341488   -0.045375
  P    -3.815073    1.003052   -0.353687
  O    -4.367180    1.671999   -1.548187
  O    -3.921898   -0.583921   -0.387339
  O    -4.527485    1.404933    1.011278
  H    -0.207005    1.927664    1.176237
  H     1.112575   -0.489048    3.159958
  H     2.724585    0.525299    1.507579
  H     1.996710    1.022674   -0.030783
  H     2.490132   -0.148073   -2.316885
  H     5.032594   -2.437697   -1.215884
  H     0.134650   -1.883932    0.197365
  H    -1.096166   -1.513276    2.025592
  H    -1.521412   -1.060527   -1.352254
  H    -0.083996   -0.462057   -2.805351
  H    -1.806188    1.231252   -2.035528
  H    -0.523042    1.783588   -0.981950
  H    -3.393960   -0.979448    0.329583
  H    -5.458565    1.580300    0.853609

----------------------------
CARTESIAN COORDINATES (A.U.)
----------------------------
  NO LB    ZA    FRAG    MASS        X           Y           Z
   0 O   8.0000    0    15.999    0.207330    2.549270    5.796521
   1 C   6.0000    0    12.011    0.232193    2.176565    3.543797
   2 C   6.0000    0    12.011    1.292735   -0.257557    2.431723
   3 O   8.0000    0    15.999    1.642717   -1.957074    4.521851
   4 C   6.0000    0    12.011    3.897297    0.386275    1.314317
   5 O   8.0000    0    15.999    5.007969   -1.762004    0.184110
   6 P  15.0000    0    30.974    7.403484   -1.281899   -1.605300
   7 O   8.0000    0    15.999    9.638865   -0.209393   -0.327045
   8 O   8.0000    0    15.999    6.356892    0.348226   -3.900737
   9 O   8.0000    0    15.999    7.882396   -3.991040   -2.818805
  10 C   6.0000    0    12.011   -0.593320   -1.694660    0.733678
  11 O   8.0000    0    15.999   -2.771658   -2.209710    2.251691
  12 C   6.0000    0    12.011   -1.416878   -0.687433   -1.879182
  13 O   8.0000    0    15.999    0.616505   -0.841146   -3.642185
  14 C   6.0000    0    12.011   -2.535741    1.997076   -1.994973
  15 O   8.0000    0    15.999   -4.299435    2.535044   -0.085746
  16 P  15.0000    0    30.974   -7.209443    1.895495   -0.668371
  17 O   8.0000    0    15.999   -8.252775    3.159620   -2.925649
  18 O   8.0000    0    15.999   -7.411313   -1.103451   -0.731964
  19 O   8.0000    0    15.999   -8.555706    2.654939    1.911038
  20 H   1.0000    0     1.008   -0.391183    3.642757    2.222765
  21 H   1.0000    0     1.008    2.102463   -0.924167    5.971454
  22 H   1.0000    0     1.008    5.148720    0.992672    2.848911
  23 H   1.0000    0     1.008    3.773235    1.932575   -0.058171
  24 H   1.0000    0     1.008    4.705667   -0.279817   -4.378277
  25 H   1.0000    0     1.008    9.510225   -4.606580   -2.297687
  26 H   1.0000    0     1.008    0.254451   -3.560116    0.372966
  27 H   1.0000    0     1.008   -2.071453   -2.859677    3.827815
  28 H   1.0000    0     1.008   -2.875053   -2.004106   -2.555390
  29 H   1.0000    0     1.008   -0.158730   -0.873161   -5.301345
  30 H   1.0000    0     1.008   -3.413201    2.326730   -3.846591
  31 H   1.0000    0     1.008   -0.988406    3.370493   -1.855617
  32 H   1.0000    0     1.008   -6.413656   -1.850889    0.622822
  33 H   1.0000    0     1.008  -10.315192    2.986334    1.613086

      -----------------------------------------------------------      
     |                   =====================                   |     
     |                           x T B                           |     
     |                   =====================                   |     
     |                         S. Grimme                         |     
     |          Mulliken Center for Theoretical Chemistry        |     
     |                    University of Bonn                     |     
      -----------------------------------------------------------      

   * xtb version 6.5.1 (579679a) compiled by 'ehlert@majestix' on 2022-07-11

   xtb is free software: you can redistribute it and/or modify it under
   the terms of the GNU Lesser General Public License as published by
   the Free Software Foundation, either version 3 of the License, or
   (at your option) any later version.
   
   xtb is distributed in the hope that it will be useful,
   but WITHOUT ANY WARRANTY; without even the implied warranty of
   MERCHANTABILITY or FITNESS FOR A PARTICULAR PURPOSE.  See the
   GNU Lesser General Public License for more details.
   
   Cite this work as:
   * C. Bannwarth, E. Caldeweyher, S. Ehlert, A. Hansen, P. Pracht,
     J. Seibert, S. Spicher, S. Grimme, WIREs Comput. Mol. Sci., 2020, 11,
     e01493. DOI: 10.1002/wcms.1493
   
   for GFN2-xTB:
   * C. Bannwarth, S. Ehlert and S. Grimme., J. Chem. Theory Comput., 2019,
     15, 1652-1671. DOI: 10.1021/acs.jctc.8b01176
   for GFN1-xTB:
   * S. Grimme, C. Bannwarth, P. Shushkov, J. Chem. Theory Comput., 2017,
     13, 1989-2009. DOI: 10.1021/acs.jctc.7b00118
   for GFN0-xTB:
   * P. Pracht, E. Caldeweyher, S. Ehlert, S. Grimme, ChemRxiv, 2019, preprint.
     DOI: 10.26434/chemrxiv.8326202.v1
   for GFN-FF:
   * S. Spicher and S. Grimme, Angew. Chem. Int. Ed., 2020, 59, 15665-15673.
     DOI: 10.1002/anie.202004239
   
   for ALPB and GBSA implicit solvation:
   * S. Ehlert, M. Stahn, S. Spicher, S. Grimme, J. Chem. Theory Comput.,
     2021, 17, 4250-4261. DOI: 10.1021/acs.jctc.1c00471
   
   for DFT-D4:
   * E. Caldeweyher, C. Bannwarth and S. Grimme, J. Chem. Phys., 2017,
     147, 034112. DOI: 10.1063/1.4993215
   * E. Caldeweyher, S. Ehlert, A. Hansen, H. Neugebauer, S. Spicher,
     C. Bannwarth and S. Grimme, J. Chem. Phys., 2019, 150, 154122.
     DOI: 10.1063/1.5090222
   * E. Caldeweyher, J.-M. Mewes, S. Ehlert and S. Grimme, Phys. Chem. Chem. Phys.
     2020, 22, 8499-8512. DOI: 10.1039/D0CP00502A
   
   for sTDA-xTB:
   * S. Grimme and C. Bannwarth, J. Chem. Phys., 2016, 145, 054103.
     DOI: 10.1063/1.4959605
   
   in the mass-spec context:
   * V. Asgeirsson, C. Bauer and S. Grimme, Chem. Sci., 2017, 8, 4879.
     DOI: 10.1039/c7sc00601b
   * J. Koopman and S. Grimme, ACS Omega 2019, 4, 12, 15120-15133.
     DOI: 10.1021/acsomega.9b02011
   
   for metadynamics refer to:
   * S. Grimme, J. Chem. Theory Comput., 2019, 155, 2847-2862
     DOI: 10.1021/acs.jctc.9b00143
   
   for SPH calculations refer to:
   * S. Spicher and S. Grimme, J. Chem. Theory Comput., 2021, 17, 1701-1714
     DOI: 10.1021/acs.jctc.0c01306
   
   with help from (in alphabetical order)
   P. Atkinson, C. Bannwarth, F. Bohle, G. Brandenburg, E. Caldeweyher
   M. Checinski, S. Dohm, S. Ehlert, S. Ehrlich, I. Gerasimov, C. Hölzer
   A. Katbashev, J. Koopman, C. Lavigne, S. Lehtola, F. März, M. Müller,
   F. Musil, H. Neugebauer, J. Pisarek, C. Plett, P. Pracht, F. Pultar,
   J. Seibert, P. Shushkov, S. Spicher, M. Stahn, M. Steiner, T. Strunk,
   J. Stückrath, T. Rose, and J. Unsleber
   
 * started run on 2023/12/07 at 00:28:50.779     

           -------------------------------------------------
          |                Calculation Setup                |
           -------------------------------------------------

          program call               : otool_xtb /tmp/34_XTB.xyz --grad -c 0 -u 0 -P 1 --namespace /tmp/34 --input /tmp/34_XTB.input.tmp --acc 1.000000
          calculation namespace      : /tmp/34
          coordinate file            : /tmp/34_XTB.xyz
          omp threads                :                     1

   ID    Z sym.   atoms
    1    8 O      1, 4, 6, 8-10, 12, 14, 16, 18-20
    2    6 C      2, 3, 5, 11, 13, 15
    3   15 P      7, 17
    4    1 H      21-34

           -------------------------------------------------
          |                 G F N 2 - x T B                 |
           -------------------------------------------------

        Reference                      10.1021/acs.jctc.8b01176
      * Hamiltonian:
        H0-scaling (s, p, d)           1.850000    2.230000    2.230000
        zeta-weighting                 0.500000
      * Dispersion:
        s8                             2.700000
        a1                             0.520000
        a2                             5.000000
        s9                             5.000000
      * Repulsion:
        kExp                           1.500000    1.000000
        rExp                           1.000000
      * Coulomb:
        alpha                          2.000000
        third order                    shell-resolved
        anisotropic                    true
        a3                             3.000000
        a5                             4.000000
        cn-shift                       1.200000
        cn-exp                         4.000000
        max-rad                        5.000000

q/qsh data taken from xtbrestart
CAMM data taken from xtbrestart

          ...................................................
          :                      SETUP                      :
          :.................................................:
          :  # basis functions                 106          :
          :  # atomic orbitals                 104          :
          :  # shells                           56          :
          :  # electrons                       120          :
          :  max. iterations                   250          :
          :  Hamiltonian                  GFN2-xTB          :
          :  restarted?                       true          :
          :  GBSA solvation                  false          :
          :  PC potential                    false          :
          :  electronic temp.          300.0000000     K    :
          :  accuracy                    1.0000000          :
          :  -> integral cutoff          0.2500000E+02      :
          :  -> integral neglect         0.1000000E-07      :
          :  -> SCF convergence          0.1000000E-05 Eh   :
          :  -> wf. convergence          0.1000000E-03 e    :
          :  Broyden damping             0.4000000          :
          ...................................................

 iter      E             dE          RMSdq      gap      omega  full diag
   1    -74.5468234 -0.745468E+02  0.547E-01    3.37       0.0  T
   2    -74.5470500 -0.226548E-03  0.305E-01    3.36       1.0  T
   3    -74.5470873 -0.372602E-04  0.514E-02    3.37       1.0  T
   4    -74.5470952 -0.792188E-05  0.215E-02    3.37       1.0  T
   5    -74.5470962 -0.106452E-05  0.735E-03    3.37       2.3  T
   6    -74.5470967 -0.431432E-06  0.319E-03    3.37       5.4  T
   7    -74.5470967 -0.558626E-07  0.162E-03    3.37      10.6  T
   8    -74.5470967 -0.869738E-08  0.423E-04    3.37      40.5  T
   9    -74.5470967 -0.137830E-08  0.166E-04    3.37     103.4  T

   *** convergence criteria satisfied after 9 iterations ***

         #    Occupation            Energy/Eh            Energy/eV
      -------------------------------------------------------------
         1        2.0000           -0.7607091             -20.6999
       ...           ...                  ...                  ...
        54        2.0000           -0.4601495             -12.5213
        55        2.0000           -0.4479665             -12.1898
        56        2.0000           -0.4439265             -12.0799
        57        2.0000           -0.4424674             -12.0401
        58        2.0000           -0.4421143             -12.0305
        59        2.0000           -0.4389392             -11.9441
        60        2.0000           -0.4346531             -11.8275 (HOMO)
        61                         -0.3107171              -8.4550 (LUMO)
        62                         -0.0929881              -2.5303
        63                         -0.0810595              -2.2057
        64                         -0.0591720              -1.6102
        65                         -0.0493188              -1.3420
       ...                                ...                  ...
       104                          1.2630678              34.3698
      -------------------------------------------------------------
                  HL-Gap            0.1239360 Eh            3.3725 eV
             Fermi-level           -0.3726851 Eh          -10.1413 eV

 SCC (total)                   0 d,  0 h,  0 min,  0.050 sec
 SCC setup                      ...        0 min,  0.000 sec (  0.467%)
 Dispersion                     ...        0 min,  0.000 sec (  0.605%)
 classical contributions        ...        0 min,  0.000 sec (  0.131%)
 integral evaluation            ...        0 min,  0.008 sec ( 16.442%)
 iterations                     ...        0 min,  0.017 sec ( 32.840%)
 molecular gradient             ...        0 min,  0.025 sec ( 49.042%)
 printout                       ...        0 min,  0.000 sec (  0.434%)

         :::::::::::::::::::::::::::::::::::::::::::::::::::::
         ::                     SUMMARY                     ::
         :::::::::::::::::::::::::::::::::::::::::::::::::::::
         :: total energy             -74.080735862977 Eh    ::
         :: gradient norm              0.070067751109 Eh/a0 ::
         :: HOMO-LUMO gap              3.372469774330 eV    ::
         ::.................................................::
         :: SCC energy               -74.547096735448 Eh    ::
         :: -> isotropic ES            0.306600732743 Eh    ::
         :: -> anisotropic ES         -0.013371735554 Eh    ::
         :: -> anisotropic XC         -0.004295470094 Eh    ::
         :: -> dispersion             -0.036389575725 Eh    ::
         :: repulsion energy           0.465827700813 Eh    ::
         :: add. restraining           0.000000000000 Eh    ::
         :: total charge              -0.000000000000 e     ::
         :::::::::::::::::::::::::::::::::::::::::::::::::::::


Property printout bound to 'properties.out'

           -------------------------------------------------
          | TOTAL ENERGY              -74.080735862977 Eh   |
          | GRADIENT NORM               0.070067751109 Eh/α |
          | HOMO-LUMO GAP               3.372469774330 eV   |
           -------------------------------------------------

------------------------------------------------------------------------
 * finished run on 2023/12/07 at 00:28:50.844     
------------------------------------------------------------------------
 total:
 * wall-time:     0 d,  0 h,  0 min,  0.065 sec
 *  cpu-time:     0 d,  0 h,  0 min,  0.064 sec
 * ratio c/w:     0.984 speedup
 SCF:
 * wall-time:     0 d,  0 h,  0 min,  0.051 sec
 *  cpu-time:     0 d,  0 h,  0 min,  0.052 sec
 * ratio c/w:     1.029 speedup


-------------------------   --------------------
FINAL SINGLE POINT ENERGY       -74.080735862980
-------------------------   --------------------

------------------------------------------------------------------------------
                         ORCA GEOMETRY RELAXATION STEP
------------------------------------------------------------------------------

Reading the OPT-File                    .... done
Getting information on internals        .... done
Copying old internal coords+grads       .... done
Making the new internal coordinates     .... (new redundants).... done
Validating the new internal coordinates .... (new redundants).... done
Calculating the B-matrix                .... done
Calculating the G,G- and P matrices     .... done
Transforming gradient to internals      .... done
Projecting the internal gradient        .... done
Number of atoms                         ....  34
Number of internal coordinates          .... 162
Current Energy                          ....   -74.080735863 Eh
Current gradient norm                   ....     0.070067751 Eh/bohr
Maximum allowed component of the step   ....  0.300
Current trust radius                    ....  0.300
Updating the Hessian (BFGS)             .... done
Forming the augmented Hessian           .... done
Diagonalizing the augmented Hessian     .... done
Last element of RFO vector              ....  0.902169699
Lowest eigenvalues of augmented Hessian:
 -0.019882773  0.009775711  0.009881248  0.010759155  0.011073967
Length of the computed step             ....  0.478159828
Warning: the length of the step is outside the trust region - taking restricted step instead
The input lambda is                     ....    -0.019883
   iter:   1  x=   -0.035446  g=    8.908082 f(x)=     0.138637
   iter:   2  x=   -0.049561  g=    3.585317 f(x)=     0.050607
   iter:   3  x=   -0.055868  g=    2.011269 f(x)=     0.012685
   iter:   4  x=   -0.056660  g=    1.623595 f(x)=     0.001287
   iter:   5  x=   -0.056671  g=    1.582834 f(x)=     0.000016
   iter:   6  x=   -0.056671  g=    1.582316 f(x)=     0.000000
   iter:   7  x=   -0.056671  g=    1.582316 f(x)=     0.000000
The output lambda is                    ....    -0.056671 (7 iterations)
The final length of the internal step   ....  0.300000000
Converting the step to cartesian space:
 Initial RMS(Int)=    0.0235702260
Transforming coordinates:
 Iter   0:  RMS(Cart)=    0.1129985864 RMS(Int)=    0.6939992768
 Iter   1:  RMS(Cart)=    0.0028140586 RMS(Int)=    0.0014147424
 Iter   2:  RMS(Cart)=    0.0001878941 RMS(Int)=    0.0000626939
 Iter   3:  RMS(Cart)=    0.0000168562 RMS(Int)=    0.0000077832
 Iter   4:  RMS(Cart)=    0.0000012486 RMS(Int)=    0.0000004304
 Iter   5:  RMS(Cart)=    0.0000001182 RMS(Int)=    0.0000000502
 Iter   6:  RMS(Cart)=    0.0000000087 RMS(Int)=    0.0000000031
done
Storing new coordinates                 .... done

                                .--------------------.
          ----------------------|Geometry convergence|-------------------------
          Item                value                   Tolerance       Converged
          ---------------------------------------------------------------------
          Energy change      -0.0097128604            0.0000050000      NO
          RMS gradient        0.0051340631            0.0001000000      NO
          MAX gradient        0.0210582961            0.0003000000      NO
          RMS step            0.0235702260            0.0020000000      NO
          MAX step            0.0632296493            0.0040000000      NO
          ........................................................
          Max(Bonds)      0.0277      Max(Angles)    3.45
          Max(Dihed)        3.62      Max(Improp)    0.00
          ---------------------------------------------------------------------

The optimization has not yet converged - more geometry cycles are needed


    ---------------------------------------------------------------------------
                         Redundant Internal Coordinates
                            (Angstroem and degrees)

        Definition                    Value    dE/dq     Step     New-Value
    ----------------------------------------------------------------------------
     1. B(C   1,O   0)                1.2084  0.015470 -0.0277    1.1807   
     2. B(C   2,C   1)                1.5233 -0.002284  0.0008    1.5241   
     3. B(O   3,C   2)                1.4375  0.010023 -0.0270    1.4105   
     4. B(C   4,C   2)                1.5380  0.005085 -0.0007    1.5373   
     5. B(O   5,C   4)                1.4126  0.004384 -0.0087    1.4039   
     6. B(P   6,O   5)                1.6025  0.000227  0.0043    1.6069   
     7. B(O   7,P   6)                1.4761  0.021053 -0.0185    1.4576   
     8. B(O   8,P   6)                1.5894  0.000513 -0.0032    1.5862   
     9. B(O   9,P   6)                1.5912  0.002681 -0.0032    1.5880   
    10. B(C  10,C   2)                1.5433  0.003878 -0.0092    1.5342   
    11. B(O  11,C  10)                1.4312  0.007255 -0.0247    1.4066   
    12. B(C  12,C  10)                1.5446  0.012821 -0.0224    1.5222   
    13. B(O  13,C  12)                1.4265  0.001807 -0.0111    1.4154   
    14. B(C  14,C  12)                1.5402  0.003341  0.0004    1.5406   
    15. B(O  15,C  14)                1.4046  0.003295 -0.0082    1.3964   
    16. B(P  16,O  15)                1.6065  0.004544  0.0010    1.6075   
    17. B(O  17,P  16)                1.4762  0.021058 -0.0184    1.4577   
    18. B(O  18,P  16)                1.5909 -0.001883  0.0004    1.5913   
    19. B(O  19,P  16)                1.5913  0.002344 -0.0022    1.5891   
    20. B(H  20,C   1)                1.0952 -0.000015 -0.0025    1.0927   
    21. B(H  21,O   3)                0.9728  0.002225 -0.0089    0.9639   
    22. B(H  22,C   4)                1.0959 -0.000791  0.0008    1.0967   
    23. B(H  23,C   4)                1.0961  0.000046  0.0003    1.0964   
    24. B(H  24,O   8)                0.9684  0.004388 -0.0143    0.9541   
    25. B(H  25,O   9)                0.9613  0.004850 -0.0159    0.9455   
    26. B(H  26,C  10)                1.1010 -0.001262  0.0026    1.1036   
    27. B(H  27,O  11)                0.9753  0.004479 -0.0128    0.9625   
    28. B(H  28,C  12)                1.0995 -0.000706  0.0021    1.1017   
    29. B(H  29,O  13)                0.9693  0.004898 -0.0142    0.9550   
    30. B(H  30,C  14)                1.0982 -0.000557  0.0016    1.0998   
    31. B(H  31,C  14)                1.0973 -0.000434  0.0016    1.0989   
    32. B(H  32,O  18)                0.9742  0.006969 -0.0173    0.9569   
    33. B(H  33,O  19)                0.9605  0.004368 -0.0154    0.9451   
    34. A(C   2,C   1,H  20)          117.61  0.000936   -0.04    117.57   
    35. A(O   0,C   1,H  20)          120.72 -0.003638    0.85    121.56   
    36. A(O   0,C   1,C   2)          121.54  0.002621   -0.71    120.83   
    37. A(O   3,C   2,C   4)          108.60 -0.005107    0.92    109.52   
    38. A(C   1,C   2,C  10)          113.79 -0.004703   -0.15    113.64   
    39. A(C   1,C   2,C   4)          106.94 -0.003729   -0.07    106.87   
    40. A(C   1,C   2,O   3)          106.22  0.001015    1.61    107.83   
    41. A(C   4,C   2,C  10)          117.70  0.013453   -1.30    116.40   
    42. A(O   3,C   2,C  10)          102.89 -0.001994   -0.65    102.24   
    43. A(C   2,O   3,H  21)          106.70 -0.002412    0.43    107.14   
    44. A(C   2,C   4,O   5)          110.94  0.012120   -1.34    109.60   
    45. A(H  22,C   4,H  23)          107.98  0.000296    0.49    108.46   
    46. A(O   5,C   4,H  22)          107.33 -0.005812    1.18    108.51   
    47. A(C   2,C   4,H  23)          111.50  0.001390    0.02    111.51   
    48. A(O   5,C   4,H  23)          110.19 -0.004297    0.03    110.22   
    49. A(C   2,C   4,H  22)          108.75 -0.004326   -0.32    108.44   
    50. A(C   4,O   5,P   6)          116.85  0.005588   -0.85    116.00   
    51. A(O   5,P   6,O   7)          115.09 -0.003523    0.09    115.18   
    52. A(O   7,P   6,O   9)          113.81 -0.003665    0.93    114.74   
    53. A(O   8,P   6,O   9)          103.65 -0.004929    1.31    104.97   
    54. A(O   7,P   6,O   8)          114.88 -0.000252   -0.17    114.71   
[...]
     74      -0.000335  -0.002077   0.206673  -0.012993  -0.003629  -0.000481
     75      -0.000248  -0.000441   0.009068  -0.001207   0.726409   0.135994
     76       0.000146   0.000240  -0.003025   0.000496  -0.306067  -0.057308
     77      -0.000582  -0.000278   0.008292  -0.001025   0.583828   0.109267
     78      -0.003353  -0.000251   0.001380   0.002318  -0.000246   0.000115
     79      -0.000095   0.000488  -0.001168  -0.003305   0.000322   0.000108
     80       0.001973   0.000390   0.000384  -0.000152  -0.000058  -0.000061
     81      -0.061833   0.277785   0.002542   0.000147  -0.000039   0.000185
     82       0.057482  -0.246663  -0.001687  -0.000064  -0.000158  -0.000109
     83      -0.191751   0.893678   0.007376   0.000003   0.000321   0.000283
     84      -0.000961   0.002142   0.001495   0.000971  -0.000109   0.000132
     85       0.001092   0.002469   0.000283  -0.000094  -0.000057   0.000375
     86       0.000248   0.001980  -0.000758   0.001117   0.000033   0.000268
     87      -0.000692  -0.000054   0.017937   0.329944   0.000268  -0.000023
     88       0.000377   0.000436  -0.013156  -0.274777  -0.000300   0.000045
     89      -0.000278  -0.000592   0.050147   0.899276   0.001005  -0.000398
     90       0.000651   0.000860  -0.000895   0.000597  -0.000112   0.000418
     91      -0.001383  -0.000390   0.000126  -0.000807   0.000008  -0.000059
     92       0.001689   0.001363  -0.000565  -0.000523   0.000034   0.000150
     93       0.002849  -0.000224   0.000118  -0.000266   0.000129  -0.000641
     94       0.002208  -0.000050  -0.000349  -0.000451   0.000002  -0.000445
     95      -0.000733  -0.000139   0.000095  -0.000328  -0.000072   0.000215
     96      -0.654455  -0.152227  -0.000885  -0.000322  -0.001365   0.004600
     97       0.482597   0.109513   0.000256   0.000498   0.001169  -0.004936
     98      -0.523302  -0.120672   0.000040  -0.000630  -0.001003   0.003778
     99      -0.001114  -0.000293   0.000260  -0.000093   0.035660  -0.190708
    100       0.008328   0.001500  -0.001427   0.000653  -0.178180   0.951830
    101      -0.000040   0.000184  -0.000072   0.000058  -0.026417   0.141261


-----------
IR SPECTRUM
-----------

 Mode   freq       eps      Int      T**2         TX        TY        TZ
       cm**-1   L/(mol*cm) km/mol    a.u.
----------------------------------------------------------------------------
  6:     12.23   0.000407    2.06  0.010391  ( 0.058901 -0.063223 -0.054075)
  7:     29.00   0.000603    3.05  0.006494  (-0.059869  0.024615 -0.047994)
  8:     33.06   0.000567    2.87  0.005357  ( 0.004913  0.067078 -0.028862)
  9:     50.91   0.000486    2.46  0.002981  ( 0.029101  0.044903 -0.010862)
 10:     61.58   0.001343    6.79  0.006806  (-0.055495  0.053676  0.029067)
 11:     76.72   0.000275    1.39  0.001118  ( 0.015112  0.011652  0.027461)
 12:     98.85   0.000324    1.64  0.001022  ( 0.005413  0.031178  0.004582)
 13:    111.51   0.000435    2.20  0.001218  ( 0.013042 -0.002283 -0.032287)
 14:    119.79   0.002142   10.83  0.005582  ( 0.072883  0.004590  0.015763)
 15:    130.89   0.000153    0.77  0.000364  (-0.011007  0.014306 -0.006194)
 16:    153.55   0.001618    8.18  0.003288  ( 0.055462  0.011526  0.008914)
 17:    172.34   0.002671   13.50  0.004836  (-0.000126  0.006913  0.069196)
 18:    182.82   0.000268    1.35  0.000458  ( 0.016136  0.013876 -0.002181)
 19:    210.97   0.011745   59.35  0.017372  (-0.124933 -0.009979 -0.040798)
 20:    216.89   0.011670   58.98  0.016791  ( 0.056656  0.082237 -0.082571)
 21:    235.31   0.003786   19.13  0.005021  ( 0.063329  0.027545  0.015876)
 22:    257.87   0.004121   20.82  0.004986  ( 0.063560  0.014573 -0.027095)
 23:    281.77   0.004206   21.25  0.004658  ( 0.036279 -0.035678  0.045484)
 24:    292.80   0.020833  105.28  0.022204  (-0.119530 -0.082108  0.034272)
 25:    310.85   0.017071   86.27  0.017137  (-0.129652  0.006792  0.016779)
 26:    313.71   0.003139   15.86  0.003123  (-0.020325 -0.047120  0.022119)
 27:    321.01   0.005082   25.68  0.004941  ( 0.016944  0.053183  0.042723)
 28:    328.54   0.013563   68.54  0.012883  ( 0.026017 -0.075343 -0.080807)
 29:    340.46   0.005439   27.49  0.004986  ( 0.056113 -0.041239  0.011683)
 30:    358.33   0.003638   18.38  0.003168  (-0.049995 -0.015628  0.020596)
 31:    369.60   0.004249   21.47  0.003588  (-0.042484  0.026818  0.032615)
 32:    375.82   0.004742   23.96  0.003937  (-0.022714  0.027503  0.051622)
 33:    391.23   0.004491   22.70  0.003582  ( 0.011734  0.057508 -0.011728)
 34:    406.93   0.020034  101.24  0.015364  (-0.095486 -0.061333 -0.049842)
 35:    410.00   0.005250   26.53  0.003996  ( 0.018938 -0.056219  0.021841)
 36:    417.00   0.012335   62.33  0.009231  ( 0.040223  0.083493 -0.025332)
 37:    423.73   0.022863  115.54  0.016838  ( 0.103282 -0.071722 -0.032049)
 38:    440.25   0.028732  145.20  0.020366  (-0.001676 -0.137571  0.037911)
 39:    465.48   0.010043   50.76  0.006733  ( 0.030588  0.069018  0.032158)
 40:    469.84   0.045478  229.82  0.030205  (-0.135613  0.067230  0.085410)
 41:    481.91   0.012392   62.63  0.008025  ( 0.043258 -0.069721 -0.035952)
 42:    523.26   0.008946   45.21  0.005335  (-0.013174  0.024436 -0.067563)
 43:    535.01   0.006265   31.66  0.003654  (-0.052865 -0.027505  0.010141)
 44:    555.46   0.008287   41.88  0.004655  ( 0.064055  0.015267 -0.017871)
 45:    581.00   0.056055  283.28  0.030108  (-0.132123  0.068216  0.089433)
 46:    638.46   0.002025   10.24  0.000990  ( 0.022371 -0.011260 -0.019046)
 47:    669.54   0.000663    3.35  0.000309  ( 0.011125 -0.007299  0.011497)
 48:    708.81   0.057794  292.07  0.025445  ( 0.159242  0.008273  0.004298)
 49:    783.33   0.030010  151.66  0.011955  (-0.094652  0.000561  0.054736)
 50:    794.42   0.012656   63.96  0.004972  (-0.045491  0.039451  0.036687)
 51:    816.55   0.034263  173.15  0.013094  (-0.062543  0.027120  0.091909)
 52:    821.86   0.011482   58.02  0.004360  (-0.061943 -0.011987  0.019469)
 53:    868.43   0.056294  284.49  0.020229  (-0.080131  0.117506 -0.000539)
 54:    880.71   0.053033  268.01  0.018791  (-0.060554  0.050680  0.112054)
 55:    893.28   0.007660   38.71  0.002676  (-0.030501 -0.030849  0.028180)
 56:    901.66   0.004775   24.13  0.001653  ( 0.035155  0.019629 -0.005612)
 57:    906.08   0.036557  184.75  0.012591  (-0.019832 -0.049087  0.098934)
 58:    909.70   0.043807  221.38  0.015028  ( 0.019538 -0.096634 -0.072854)
 59:    934.52   0.003548   17.93  0.001185  ( 0.009370  0.017897 -0.027869)
 60:    969.26   0.067327  340.24  0.021677  ( 0.019853  0.084032 -0.119253)
 61:    982.90   0.081151  410.10  0.025765  ( 0.084112  0.127171  0.050175)
 62:    990.71   0.010979   55.48  0.003458  (-0.001295 -0.057274 -0.013281)
 63:   1049.11   0.005996   30.30  0.001783  ( 0.025560  0.024254 -0.023278)
 64:   1061.05   0.008492   42.92  0.002498  (-0.038545  0.001782  0.031760)
 65:   1093.17   0.007834   39.59  0.002236  (-0.013395 -0.041973  0.017184)
 66:   1096.05   0.020729  104.76  0.005902  (-0.064827 -0.030711  0.027502)
 67:   1102.49   0.011191   56.56  0.003168  ( 0.044323 -0.029820 -0.017718)
 68:   1117.98   0.048431  244.75  0.013519  ( 0.083398 -0.057409 -0.057162)
 69:   1136.82   0.002944   14.88  0.000808  ( 0.025923 -0.005223  0.010439)
 70:   1150.05   0.005588   28.24  0.001516  ( 0.005860  0.029309 -0.024957)
 71:   1197.04   0.027757  140.27  0.007236  ( 0.079039  0.024684 -0.019483)
 72:   1217.61   0.011539   58.31  0.002957  (-0.050388 -0.014934 -0.013974)
 73:   1238.19   0.004026   20.35  0.001015  (-0.005131  0.010159 -0.029751)
 74:   1242.35   0.006961   35.18  0.001749  ( 0.007612  0.041087 -0.001583)
 75:   1274.36   0.024990  126.29  0.006119  ( 0.003823 -0.046048  0.063122)
 76:   1289.08   0.056363  284.84  0.013645  (-0.083912  0.031593 -0.074868)
 77:   1292.12   0.054262  274.22  0.013105  (-0.090664 -0.046323 -0.052337)
 78:   1294.37   0.022591  114.17  0.005447  (-0.005344 -0.058588  0.044559)
 79:   1306.82   0.026239  132.60  0.006266  (-0.020755 -0.076331 -0.002924)
 80:   1318.92   0.003552   17.95  0.000840  ( 0.012572  0.008597 -0.024665)
 81:   1331.25   0.002102   10.62  0.000493  ( 0.020142  0.005813  0.007296)
 82:   1340.33   0.008103   40.95  0.001887  ( 0.027195 -0.016903  0.029348)
 83:   1352.12   0.006499   32.84  0.001500  (-0.031501 -0.012463  0.018769)
 84:   1359.51   0.000460    2.33  0.000106  ( 0.000756  0.000526  0.010236)
 85:   1452.20   0.000064    0.32  0.000014  (-0.001535  0.003338 -0.000437)
 86:   1470.24   0.000437    2.21  0.000093  (-0.001101  0.004891 -0.008224)
 87:   1759.41   0.057040  288.26  0.010117  ( 0.032187 -0.037283 -0.087699)
 88:   2873.52   0.000032    0.16  0.000004  ( 0.001262  0.001206  0.000691)
 89:   2884.61   0.001881    9.51  0.000203  ( 0.012434 -0.006419 -0.002771)
 90:   2886.96   0.014414   72.84  0.001558  ( 0.004512 -0.036385  0.014624)
 91:   2915.19   0.001031    5.21  0.000110  (-0.010227  0.000116 -0.002395)
 92:   2918.57   0.002059   10.41  0.000220  ( 0.000185 -0.014372  0.003688)
 93:   2924.96   0.003911   19.76  0.000417  ( 0.019010  0.006189 -0.004190)
 94:   2938.42   0.000682    3.44  0.000072  (-0.001283 -0.008148 -0.002085)
 95:   3304.34   0.010703   54.09  0.001011  ( 0.011835 -0.024603 -0.016294)
 96:   3329.11   0.079696  402.75  0.007471  (-0.071242  0.034625 -0.034587)
 97:   3364.51   0.004287   21.67  0.000398  ( 0.002534  0.001960  0.019682)
 98:   3467.84   0.045617  230.53  0.004105  ( 0.061409  0.010341  0.015068)
 99:   3527.27   0.010445   52.78  0.000924  ( 0.008809 -0.014879  0.025002)
100:   3629.24   0.030238  152.81  0.002600  ( 0.034141 -0.024050  0.029258)
101:   3629.53   0.009689   48.96  0.000833  (-0.004537  0.024457  0.014638)

* The epsilon (eps) is given for a Dirac delta lineshape.
** The dipole moment derivative (T) already includes vibrational overlap.

The first frequency considered to be a vibration is 6
The total number of vibrations considered is 96


--------------------------
THERMOCHEMISTRY AT 298.15K
--------------------------

Temperature         ... 298.15 K
Pressure            ... 1.00 atm
Total Mass          ... 340.11 AMU

Throughout the following assumptions are being made:
  (1) The electronic state is orbitally nondegenerate
  (2) There are no thermally accessible electronically excited states
  (3) Hindered rotations indicated by low frequency modes are not
      treated as such but are treated as vibrations and this may
      cause some error
  (4) All equations used are the standard statistical mechanics
      equations for an ideal gas
  (5) All vibrations are strictly harmonic

freq.      12.23  E(vib)   ...       0.58 
freq.      29.00  E(vib)   ...       0.55 
freq.      33.06  E(vib)   ...       0.55 
freq.      50.91  E(vib)   ...       0.52 
freq.      61.58  E(vib)   ...       0.51 
freq.      76.72  E(vib)   ...       0.49 
freq.      98.85  E(vib)   ...       0.46 
freq.     111.51  E(vib)   ...       0.45 
freq.     119.79  E(vib)   ...       0.44 
freq.     130.89  E(vib)   ...       0.42 
freq.     153.55  E(vib)   ...       0.40 
freq.     172.34  E(vib)   ...       0.38 
freq.     182.82  E(vib)   ...       0.37 
freq.     210.97  E(vib)   ...       0.34 
freq.     216.89  E(vib)   ...       0.34 
freq.     235.31  E(vib)   ...       0.32 
freq.     257.87  E(vib)   ...       0.30 
freq.     281.77  E(vib)   ...       0.28 
freq.     292.80  E(vib)   ...       0.27 
freq.     310.85  E(vib)   ...       0.26 
freq.     313.71  E(vib)   ...       0.25 
freq.     321.01  E(vib)   ...       0.25 
freq.     328.54  E(vib)   ...       0.24 
freq.     340.46  E(vib)   ...       0.23 
freq.     358.33  E(vib)   ...       0.22 
freq.     369.60  E(vib)   ...       0.21 
freq.     375.82  E(vib)   ...       0.21 
freq.     391.23  E(vib)   ...       0.20 
freq.     406.93  E(vib)   ...       0.19 
freq.     410.00  E(vib)   ...       0.19 
freq.     417.00  E(vib)   ...       0.18 
freq.     423.73  E(vib)   ...       0.18 
freq.     440.25  E(vib)   ...       0.17 
freq.     465.48  E(vib)   ...       0.16 
freq.     469.84  E(vib)   ...       0.16 
freq.     481.91  E(vib)   ...       0.15 
freq.     523.26  E(vib)   ...       0.13 
freq.     535.01  E(vib)   ...       0.13 
freq.     555.46  E(vib)   ...       0.12 
freq.     581.00  E(vib)   ...       0.11 
freq.     638.46  E(vib)   ...       0.09 
freq.     669.54  E(vib)   ...       0.08 
freq.     708.81  E(vib)   ...       0.07 
freq.     783.33  E(vib)   ...       0.05 
freq.     794.42  E(vib)   ...       0.05 
freq.     816.55  E(vib)   ...       0.05 
freq.     821.86  E(vib)   ...       0.05 
freq.     868.43  E(vib)   ...       0.04 
freq.     880.71  E(vib)   ...       0.04 
freq.     893.28  E(vib)   ...       0.03 
freq.     901.66  E(vib)   ...       0.03 
freq.     906.08  E(vib)   ...       0.03 
freq.     909.70  E(vib)   ...       0.03 
freq.     934.52  E(vib)   ...       0.03 
freq.     969.26  E(vib)   ...       0.03 
freq.     982.90  E(vib)   ...       0.02 
freq.     990.71  E(vib)   ...       0.02 
freq.    1049.11  E(vib)   ...       0.02 
freq.    1061.05  E(vib)   ...       0.02 
freq.    1093.17  E(vib)   ...       0.02 
freq.    1096.05  E(vib)   ...       0.02 
freq.    1102.49  E(vib)   ...       0.02 
freq.    1117.98  E(vib)   ...       0.01 
freq.    1136.82  E(vib)   ...       0.01 
freq.    1150.05  E(vib)   ...       0.01 
freq.    1197.04  E(vib)   ...       0.01 
freq.    1217.61  E(vib)   ...       0.01 
freq.    1238.19  E(vib)   ...       0.01 
freq.    1242.35  E(vib)   ...       0.01 
freq.    1274.36  E(vib)   ...       0.01 
freq.    1289.08  E(vib)   ...       0.01 
freq.    1292.12  E(vib)   ...       0.01 
freq.    1294.37  E(vib)   ...       0.01 
freq.    1306.82  E(vib)   ...       0.01 
freq.    1318.92  E(vib)   ...       0.01 
freq.    1331.25  E(vib)   ...       0.01 
freq.    1340.33  E(vib)   ...       0.01 
freq.    1352.12  E(vib)   ...       0.01 
freq.    1359.51  E(vib)   ...       0.01 
freq.    1452.20  E(vib)   ...       0.00 
freq.    1470.24  E(vib)   ...       0.00 
freq.    1759.41  E(vib)   ...       0.00 
freq.    2873.52  E(vib)   ...       0.00 
freq.    2884.61  E(vib)   ...       0.00 
freq.    2886.96  E(vib)   ...       0.00 
freq.    2915.19  E(vib)   ...       0.00 
freq.    2918.57  E(vib)   ...       0.00 
freq.    2924.96  E(vib)   ...       0.00 
freq.    2938.42  E(vib)   ...       0.00 
freq.    3304.34  E(vib)   ...       0.00 
freq.    3329.11  E(vib)   ...       0.00 
freq.    3364.51  E(vib)   ...       0.00 
freq.    3467.84  E(vib)   ...       0.00 
freq.    3527.27  E(vib)   ...       0.00 
freq.    3629.24  E(vib)   ...       0.00 
freq.    3629.53  E(vib)   ...       0.00 

------------
INNER ENERGY
------------

The inner energy is: U= E(el) + E(ZPE) + E(vib) + E(rot) + E(trans)
    E(el)   - is the total energy from the electronic structure calculation
              = E(kin-el) + E(nuc-el) + E(el-el) + E(nuc-nuc)
    E(ZPE)  - the the zero temperature vibrational energy from the frequency calculation
    E(vib)  - the the finite temperature correction to E(ZPE) due to population
              of excited vibrational states
    E(rot)  - is the rotational thermal energy
    E(trans)- is the translational thermal energy

Summary of contributions to the inner energy U:
Electronic energy                ...    -74.09641096 Eh
Zero point energy                ...      0.23272671 Eh     146.04 kcal/mol
Thermal vibrational correction   ...      0.02050564 Eh      12.87 kcal/mol
Thermal rotational correction    ...      0.00141627 Eh       0.89 kcal/mol
Thermal translational correction ...      0.00141627 Eh       0.89 kcal/mol
-----------------------------------------------------------------------
Total thermal energy                    -73.84034606 Eh


Summary of corrections to the electronic energy:
(perhaps to be used in another calculation)
Total thermal correction                  0.02333819 Eh      14.64 kcal/mol
Non-thermal (ZPE) correction              0.23272671 Eh     146.04 kcal/mol
-----------------------------------------------------------------------
Total correction                          0.25606490 Eh     160.68 kcal/mol


--------
ENTHALPY
--------

The enthalpy is H = U + kB*T
                kB is Boltzmann's constant
Total free energy                 ...    -73.84034606 Eh 
Thermal Enthalpy correction       ...      0.00094421 Eh       0.59 kcal/mol
-----------------------------------------------------------------------
Total Enthalpy                    ...    -73.83940186 Eh


Note: Only C1 symmetry has been detected, increase convergence thresholds 
      if your molecule has a higher symmetry. Symmetry factor of 1.0 is   
      used for the rotational entropy correction. 
 

Note: Rotational entropy computed according to Herzberg 
Infrared and Raman Spectra, Chapter V,1, Van Nostrand Reinhold, 1945 
Point Group:  C1, Symmetry Number:   1  
Rotational constants in cm-1:     0.021344     0.005148     0.004745 

Vibrational entropy computed according to the QRRHO of S. Grimme
Chem.Eur.J. 2012 18 9955


-------
ENTROPY
-------

The entropy contributions are T*S = T*(S(el)+S(vib)+S(rot)+S(trans))
     S(el)   - electronic entropy
     S(vib)  - vibrational entropy
     S(rot)  - rotational entropy
     S(trans)- translational entropy
The entropies will be listed as multiplied by the temperature to get
units of energy

Electronic entropy                ...      0.00000000 Eh      0.00 kcal/mol
Vibrational entropy               ...      0.03659176 Eh     22.96 kcal/mol
Rotational entropy                ...      0.01634039 Eh     10.25 kcal/mol
Translational entropy             ...      0.02060492 Eh     12.93 kcal/mol
-----------------------------------------------------------------------
Final entropy term                ...      0.07353707 Eh     46.15 kcal/mol

In case the symmetry of your molecule has not been determined correctly
or in case you have a reason to use a different symmetry number we print 
out the resulting rotational entropy values for sn=1,12 :
 --------------------------------------------------------
|  sn= 1 | S(rot)=       0.01634039 Eh     10.25 kcal/mol|
|  sn= 2 | S(rot)=       0.01568594 Eh      9.84 kcal/mol|
|  sn= 3 | S(rot)=       0.01530311 Eh      9.60 kcal/mol|
|  sn= 4 | S(rot)=       0.01503148 Eh      9.43 kcal/mol|
|  sn= 5 | S(rot)=       0.01482079 Eh      9.30 kcal/mol|
|  sn= 6 | S(rot)=       0.01464865 Eh      9.19 kcal/mol|
|  sn= 7 | S(rot)=       0.01450310 Eh      9.10 kcal/mol|
|  sn= 8 | S(rot)=       0.01437703 Eh      9.02 kcal/mol|
|  sn= 9 | S(rot)=       0.01426582 Eh      8.95 kcal/mol|
|  sn=10 | S(rot)=       0.01416634 Eh      8.89 kcal/mol|
|  sn=11 | S(rot)=       0.01407635 Eh      8.83 kcal/mol|
|  sn=12 | S(rot)=       0.01399419 Eh      8.78 kcal/mol|
 --------------------------------------------------------


-------------------
GIBBS FREE ENERGY
-------------------

The Gibbs free energy is G = H - T*S

Total enthalpy                    ...    -73.83940186 Eh 
Total entropy correction          ...     -0.07353707 Eh    -46.15 kcal/mol
-----------------------------------------------------------------------
Final Gibbs free energy         ...    -73.91293892 Eh

For completeness - the Gibbs free energy minus the electronic energy
G-E(el)                           ...      0.18347204 Eh    115.13 kcal/mol



Timings for individual modules:

Sum of individual times         ...      505.308 sec (=   8.422 min)
Geometry relaxation             ...        2.364 sec (=   0.039 min)   0.5 %
Numerical frequency calculation ...      500.960 sec (=   8.349 min)  99.1 %
XTB module                      ...        1.983 sec (=   0.033 min)   0.4 %
                             ****ORCA TERMINATED NORMALLY****
TOTAL RUN TIME: 0 days 0 hours 8 minutes 26 seconds 913 msec
