
                                 *****************
                                 * O   R   C   A *
                                 *****************

                                            #,                                       
                                            ###                                      
                                            ####                                     
                                            #####                                    
                                            ######                                   
                                           ########,                                 
                                     ,,################,,,,,                         
                               ,,#################################,,                 
                          ,,##########################################,,             
                       ,#########################################, ''#####,          
                    ,#############################################,,   '####,        
                  ,##################################################,,,,####,       
                ,###########''''           ''''###############################       
              ,#####''   ,,,,##########,,,,          '''####'''          '####       
            ,##' ,,,,###########################,,,                        '##       
           ' ,,###''''                  '''############,,,                           
         ,,##''                                '''############,,,,        ,,,,,,###''
      ,#''                                            '''#######################'''  
     '                                                          ''''####''''         
             ,#######,   #######,   ,#######,      ##                                
            ,#'     '#,  ##    ##  ,#'     '#,    #''#        ######   ,####,        
            ##       ##  ##   ,#'  ##            #'  '#       #        #'  '#        
            ##       ##  #######   ##           ,######,      #####,   #    #        
            '#,     ,#'  ##    ##  '#,     ,#' ,#      #,         ##   #,  ,#        
             '#######'   ##     ##  '#######'  #'      '#     #####' # '####'        



                  #######################################################
                  #                        -***-                        #
                  #          Department of theory and spectroscopy      #
                  #    Directorship and core code : Frank Neese         #
                  #        Max Planck Institute fuer Kohlenforschung    #
                  #                Kaiser Wilhelm Platz 1               #
                  #                 D-45470 Muelheim/Ruhr               #
                  #                      Germany                        #
                  #                                                     #
                  #                  All rights reserved                #
                  #                        -***-                        #
                  #######################################################


                         Program Version 5.0.3 -  RELEASE  -


 With contributions from (in alphabetic order):
   Daniel Aravena         : Magnetic Suceptibility
   Michael Atanasov       : Ab Initio Ligand Field Theory (pilot matlab implementation)
   Alexander A. Auer      : GIAO ZORA, VPT2 properties, NMR spectrum
   Ute Becker             : Parallelization
   Giovanni Bistoni       : ED, misc. LED, open-shell LED, HFLD
   Martin Brehm           : Molecular dynamics
   Dmytro Bykov           : SCF Hessian
   Vijay G. Chilkuri      : MRCI spin determinant printing, contributions to CSF-ICE
   Dipayan Datta          : RHF DLPNO-CCSD density
   Achintya Kumar Dutta   : EOM-CC, STEOM-CC
   Dmitry Ganyushin       : Spin-Orbit,Spin-Spin,Magnetic field MRCI
   Miquel Garcia          : C-PCM and meta-GGA Hessian, CC/C-PCM, Gaussian charge scheme
   Yang Guo               : DLPNO-NEVPT2, F12-NEVPT2, CIM, IAO-localization
   Andreas Hansen         : Spin unrestricted coupled pair/coupled cluster methods
   Benjamin Helmich-Paris : MC-RPA, TRAH-SCF, COSX integrals
   Lee Huntington         : MR-EOM, pCC
   Robert Izsak           : Overlap fitted RIJCOSX, COSX-SCS-MP3, EOM
   Marcus Kettner         : VPT2
   Christian Kollmar      : KDIIS, OOCD, Brueckner-CCSD(T), CCSD density, CASPT2, CASPT2-K
   Simone Kossmann        : Meta GGA functionals, TD-DFT gradient, OOMP2, MP2 Hessian
   Martin Krupicka        : Initial AUTO-CI
   Lucas Lang             : DCDCAS
   Marvin Lechner         : AUTO-CI (C++ implementation), FIC-MRCC
   Dagmar Lenk            : GEPOL surface, SMD
   Dimitrios Liakos       : Extrapolation schemes; Compound Job, initial MDCI parallelization
   Dimitrios Manganas     : Further ROCIS development; embedding schemes
   Dimitrios Pantazis     : SARC Basis sets
   Anastasios Papadopoulos: AUTO-CI, single reference methods and gradients
   Taras Petrenko         : DFT Hessian,TD-DFT gradient, ASA, ECA, R-Raman, ABS, FL, XAS/XES, NRVS
   Peter Pinski           : DLPNO-MP2, DLPNO-MP2 Gradient
   Christoph Reimann      : Effective Core Potentials
   Marius Retegan         : Local ZFS, SOC
   Christoph Riplinger    : Optimizer, TS searches, QM/MM, DLPNO-CCSD(T), (RO)-DLPNO pert. Triples
   Tobias Risthaus        : Range-separated hybrids, TD-DFT gradient, RPA, STAB
   Michael Roemelt        : Original ROCIS implementation
   Masaaki Saitow         : Open-shell DLPNO-CCSD energy and density
   Barbara Sandhoefer     : DKH picture change effects
   Avijit Sen             : IP-ROCIS
   Kantharuban Sivalingam : CASSCF convergence, NEVPT2, FIC-MRCI
   Bernardo de Souza      : ESD, SOC TD-DFT
   Georgi Stoychev        : AutoAux, RI-MP2 NMR, DLPNO-MP2 response
   Willem Van den Heuvel  : Paramagnetic NMR
   Boris Wezisla          : Elementary symmetry handling
   Frank Wennmohs         : Technical directorship


 We gratefully acknowledge several colleagues who have allowed us to
 interface, adapt or use parts of their codes:
   Stefan Grimme, W. Hujo, H. Kruse, P. Pracht,  : VdW corrections, initial TS optimization,
                  C. Bannwarth, S. Ehlert          DFT functionals, gCP, sTDA/sTD-DF
   Ed Valeev, F. Pavosevic, A. Kumar             : LibInt (2-el integral package), F12 methods
   Garnet Chan, S. Sharma, J. Yang, R. Olivares  : DMRG
   Ulf Ekstrom                                   : XCFun DFT Library
   Mihaly Kallay                                 : mrcc  (arbitrary order and MRCC methods)
   Jiri Pittner, Ondrej Demel                    : Mk-CCSD
   Frank Weinhold                                : gennbo (NPA and NBO analysis)
   Christopher J. Cramer and Donald G. Truhlar   : smd solvation model
   Lars Goerigk                                  : TD-DFT with DH, B97 family of functionals
   V. Asgeirsson, H. Jonsson                     : NEB implementation
   FAccTs GmbH                                   : IRC, NEB, NEB-TS, DLPNO-Multilevel, CI-OPT
                                                   MM, QMMM, 2- and 3-layer-ONIOM, Crystal-QMMM,
                                                   LR-CPCM, SF, NACMEs, symmetry and pop. for TD-DFT,
                                                   nearIR, NL-DFT gradient (VV10), updates on ESD,
                                                   ML-optimized integration grids
   S Lehtola, MJT Oliveira, MAL Marques          : LibXC Library
   Liviu Ungur et al                             : ANISO software


 Your calculation uses the libint2 library for the computation of 2-el integrals
 For citations please refer to: http://libint.valeyev.net

 Your ORCA version has been built with support for libXC version: 5.1.0
 For citations please refer to: https://tddft.org/programs/libxc/

 This ORCA versions uses:
   CBLAS   interface :  Fast vector & matrix operations
   LAPACKE interface :  Fast linear algebra routines
   SCALAPACK package :  Parallel linear algebra routines
   Shared memory     :  Shared parallel matrices
   BLAS/LAPACK       :  OpenBLAS 0.3.15  USE64BITINT DYNAMIC_ARCH NO_AFFINITY Haswell SINGLE_THREADED
        Core in use  :  Haswell
   Copyright (c) 2011-2014, The OpenBLAS Project


Your calculation utilizes the semiempirical GFN2-xTB method
Please cite in your paper:
C. Bannwarth, Ehlert S., S. Grimme,  J. Chem. Theory Comput., 15, (2019), 1652.
   

================================================================================

================================================================================
                                        WARNINGS
                       Please study these warnings very carefully!
================================================================================


WARNING: Geometry Optimization
  ===> : Switching off AutoStart
         For restart on a previous wavefunction, please use MOREAD

WARNING: Found dipole moment calculation with XTB calculation
  ===> : Switching off dipole moment calculation


WARNING: TRAH-SCF for XTB is not implemented!
  ===> : Turning TRAH off!

================================================================================
                                       INPUT FILE
================================================================================
NAME = /tmp/35.inp
|  1> ! XTB2 opt numfreq
|  2> * XYZ 0 1
|  3> C -1.1366 0.8893 1.2233
|  4> C -1.3622 0.4634 -0.2272
|  5> O -1.2455 1.6673 -1.0378
|  6> C -2.8086 -0.0399 -0.3667
|  7> O -3.6597 0.4752 -1.0777
|  8> O -3.1184 -1.0750 0.4336
|  9> C -0.3508 -0.5585 -0.8201
| 10> O -0.4810 -0.5203 -2.2593
| 11> C -0.6202 -1.9783 -0.3079
| 12> O -0.9652 -2.9300 -1.0039
| 13> C 1.1253 -0.2379 -0.5256
| 14> O 1.4438 -0.3866 0.8490
| 15> P 2.8496 0.1731 1.3699
| 16> O 3.1420 -0.0478 2.8119
| 17> O 2.8826 1.7100 0.9519
| 18> O 3.9401 -0.4815 0.4100
| 19> H -1.9612 1.5244 1.5702
| 20> H -0.2315 1.4966 1.3279
| 21> H -1.0764 0.0323 1.9011
| 22> H -2.1251 2.0990 -1.0313
| 23> H -4.0437 -1.3071 0.1970
| 24> H -0.7014 0.4071 -2.4858
| 25> H -0.4916 -2.1186 0.7801
| 26> H 1.7704 -0.9135 -1.1009
| 27> H 1.3594 0.7785 -0.8626
| 28> H 3.5765 2.1893 1.4397
| 29> H 4.2892 -1.3105 0.7871
| 30> *
| 31> 
| 32>                          ****END OF INPUT****
================================================================================

                       *****************************
                       * Geometry Optimization Run *
                       *****************************

Geometry optimization settings:
Update method            Update   .... BFGS
Choice of coordinates    CoordSys .... Z-matrix Internals
Initial Hessian          InHess   .... Almoef's Model

Convergence Tolerances:
Energy Change            TolE     ....  5.0000e-06 Eh
Max. Gradient            TolMAXG  ....  3.0000e-04 Eh/bohr
RMS Gradient             TolRMSG  ....  1.0000e-04 Eh/bohr
Max. Displacement        TolMAXD  ....  4.0000e-03 bohr
RMS Displacement         TolRMSD  ....  2.0000e-03 bohr
Strict Convergence                ....  False
------------------------------------------------------------------------------
                        ORCA OPTIMIZATION COORDINATE SETUP
------------------------------------------------------------------------------

The optimization will be done in new redundant internal coordinates
Making redundant internal coordinates   ...  (new redundants) done
Evaluating the initial hessian          ...  (Almloef) done
Evaluating the coordinates              ...  done
Calculating the B-matrix                .... done
Calculating the G-matrix                .... done
Diagonalizing the G-matrix              .... done
Small eigenvalue found = 8.652e-03
Small eigenvalue found = 1.236e-02
The first mode is                       ....   52
The number of degrees of freedom        ....   75

    -----------------------------------------------------------------
                    Redundant Internal Coordinates


    -----------------------------------------------------------------
         Definition                    Initial Value    Approx d2E/dq
    -----------------------------------------------------------------
      1. B(C   1,C   0)                  1.5285         0.375673   
      2. B(O   2,C   1)                  1.4560         0.439041   
      3. B(C   3,C   1)                  1.5378         0.363015   
      4. B(O   4,C   3)                  1.2228         1.034297   
      5. B(O   5,C   3)                  1.3446         0.661218   
      6. B(C   6,C   1)                  1.5552         0.340506   
      7. B(O   7,C   6)                  1.4456         0.456244   
      8. B(C   8,C   6)                  1.5332         0.369185   
      9. B(O   9,C   8)                  1.2285         1.012892   
     10. B(C  10,C   6)                  1.5390         0.361484   
     11. B(O  11,C  10)                  1.4188         0.503360   
     12. B(P  12,O  11)                  1.6003         0.868744   
     13. B(O  13,P  12)                  1.4878         1.313037   
     14. B(O  14,P  12)                  1.5931         0.892037   
     15. B(O  15,P  12)                  1.5935         0.890778   
     16. B(H  16,C   0)                  1.0971         0.350812   
     17. B(H  17,C   0)                  1.0950         0.353584   
     18. B(H  18,C   0)                  1.0943         0.354460   
     19. B(H  19,O   2)                  0.9798         0.483392   
     20. B(H  20,O   5)                  0.9829         0.478059   
     21. B(H  21,O   7)                  0.9798         0.483532   
     22. B(H  22,C   8)                  1.1045         0.341394   
     23. B(H  23,C  10)                  1.0971         0.350870   
     24. B(H  24,C  10)                  1.0961         0.352117   
     25. B(H  25,O  14)                  0.9743         0.493426   
     26. B(H  26,O  15)                  0.9754         0.491439   
     27. A(H  16,C   0,H  17)          105.6648         0.288822   
     28. A(C   1,C   0,H  16)          110.5136         0.323228   
     29. A(H  16,C   0,H  18)          107.3887         0.288934   
     30. A(C   1,C   0,H  17)          111.5431         0.323646   
     31. A(C   1,C   0,H  18)          112.1909         0.323777   
     32. A(H  17,C   0,H  18)          109.2514         0.289290   
     33. A(C   0,C   1,C   6)          116.6721         0.357997   
     34. A(O   2,C   1,C   3)          107.1870         0.369397   
     35. A(C   3,C   1,C   6)          111.2252         0.355918   
     36. A(C   0,C   1,C   3)          108.4276         0.361923   
     37. A(O   2,C   1,C   6)          106.1963         0.365364   
     38. A(C   0,C   1,O   2)          106.6242         0.371580   
     39. A(C   1,O   2,H  19)          106.7766         0.344737   
     40. A(O   4,C   3,O   5)          120.6643         0.475684   
     41. A(C   1,C   3,O   4)          124.7179         0.429410   
     42. A(C   1,C   3,O   5)          114.4987         0.396627   
     43. A(C   3,O   5,H  20)          104.7987         0.368869   
     44. A(O   7,C   6,C  10)          105.7477         0.371576   
     45. A(C   1,C   6,C  10)          114.4515         0.355663   
     46. A(O   7,C   6,C   8)          109.9524         0.372928   
     47. A(C   1,C   6,C   8)          111.5210         0.356938   
     48. A(C   1,C   6,O   7)          107.6746         0.367778   
     49. A(C   8,C   6,C  10)          107.3085         0.360588   
     50. A(C   6,O   7,H  21)          105.9876         0.346988   
     51. A(C   6,C   8,O   9)          125.2725         0.429097   
     52. A(O   9,C   8,H  22)          119.4965         0.377982   
     53. A(C   6,C   8,H  22)          115.2292         0.320873   
     54. A(O  11,C  10,H  24)          110.3106         0.337414   
     55. A(H  23,C  10,H  24)          106.5128         0.288641   
     56. A(C   6,C  10,H  24)          109.8276         0.321391   
     57. A(O  11,C  10,H  23)          108.1502         0.337214   
     58. A(C   6,C  10,H  23)          109.5947         0.321204   
     59. A(C   6,C  10,O  11)          112.2641         0.377932   
     60. A(C  10,O  11,P  12)          118.4183         0.468709   
     61. A(O  14,P  12,O  15)          102.9489         0.561293   
     62. A(O  13,P  12,O  15)          112.8522         0.604481   
     63. A(O  11,P  12,O  15)          105.1548         0.558473   
     64. A(O  13,P  12,O  14)          113.1704         0.604645   
     65. A(O  11,P  12,O  14)          105.6767         0.558623   
     66. A(O  11,P  12,O  13)          115.8613         0.601567   
     67. A(P  12,O  14,H  25)          110.9773         0.416756   
     68. A(P  12,O  15,H  26)          111.1742         0.416352   
     69. D(O   2,C   1,C   0,H  16)     67.5562         0.011262   
     70. D(C   3,C   1,C   0,H  17)   -164.8003         0.011262   
     71. D(O   2,C   1,C   0,H  17)    -49.6794         0.011262   
     72. D(C   6,C   1,C   0,H  16)   -174.0359         0.011262   
     73. D(C   3,C   1,C   0,H  18)     72.2523         0.011262   
     74. D(O   2,C   1,C   0,H  18)   -172.6268         0.011262   
     75. D(C   3,C   1,C   0,H  16)    -47.5647         0.011262   
     76. D(C   6,C   1,C   0,H  18)    -54.2189         0.011262   
     77. D(C   6,C   1,C   0,H  17)     68.7284         0.011262   
     78. D(H  19,O   2,C   1,C   6)    149.8807         0.015180   
     79. D(H  19,O   2,C   1,C   3)     30.9037         0.015180   
     80. D(H  19,O   2,C   1,C   0)    -85.0513         0.015180   
     81. D(O   4,C   3,C   1,C   6)   -113.1783         0.009896   
     82. D(O   4,C   3,C   1,C   0)    117.2545         0.009896   
     83. D(O   5,C   3,C   1,C   6)     70.7817         0.009896   
     84. D(O   5,C   3,C   1,O   2)   -173.5385         0.009896   
     85. D(O   5,C   3,C   1,C   0)    -58.7855         0.009896   
     86. D(O   4,C   3,C   1,O   2)      2.5015         0.009896   
     87. D(H  20,O   5,C   3,O   4)      6.6604         0.032404   
     88. D(H  20,O   5,C   3,C   1)   -177.1235         0.032404   
     89. D(C  10,C   6,C   1,C   3)   -170.8792         0.009385   
     90. D(C  10,C   6,C   1,O   2)     72.8315         0.009385   
     91. D(C   8,C   6,C   1,C   3)    -48.8312         0.009385   
     92. D(C   8,C   6,C   1,O   2)   -165.1205         0.009385   
     93. D(C   8,C   6,C   1,C   0)     76.2398         0.009385   
     94. D(C  10,C   6,C   1,C   0)    -45.8082         0.009385   
     95. D(O   7,C   6,C   1,O   2)    -44.4141         0.009385   
     96. D(O   7,C   6,C   1,C   0)   -163.0538         0.009385   
     97. D(O   7,C   6,C   1,C   3)     71.8752         0.009385   
     98. D(H  21,O   7,C   6,C   8)    155.1938         0.016396   
     99. D(H  21,O   7,C   6,C   1)     33.5066         0.016396   
    100. D(H  21,O   7,C   6,C  10)    -89.2607         0.016396   
    101. D(H  22,C   8,C   6,C  10)     62.3697         0.010210   
    102. D(H  22,C   8,C   6,O   7)    176.9242         0.010210   
    103. D(H  22,C   8,C   6,C   1)    -63.7117         0.010210   
    104. D(O   9,C   8,C   6,C  10)   -118.1195         0.010210   
    105. D(O   9,C   8,C   6,O   7)     -3.5651         0.010210   
    106. D(O   9,C   8,C   6,C   1)    115.7991         0.010210   
    107. D(H  24,C  10,C   6,O   7)     63.5403         0.010477   
    108. D(H  24,C  10,C   6,C   1)    -54.8028         0.010477   
    109. D(H  23,C  10,C   6,C   8)     64.1943         0.010477   
    110. D(H  23,C  10,C   6,O   7)    -53.1436         0.010477   
    111. D(H  23,C  10,C   6,C   1)   -171.4867         0.010477   
    112. D(O  11,C  10,C   6,C   8)    -56.0066         0.010477   
    113. D(O  11,C  10,C   6,O   7)   -173.3445         0.010477   
    114. D(H  24,C  10,C   6,C   8)   -179.1217         0.010477   
    115. D(O  11,C  10,C   6,C   1)     68.3124         0.010477   
    116. D(P  12,O  11,C  10,H  24)    -45.6038         0.020040   
    117. D(P  12,O  11,C  10,H  23)     70.5178         0.020040   
    118. D(P  12,O  11,C  10,C   6)   -168.4470         0.020040   
    119. D(O  15,P  12,O  11,C  10)    -52.9603         0.013065   
    120. D(O  14,P  12,O  11,C  10)     55.5297         0.013065   
    121. D(O  13,P  12,O  11,C  10)   -178.2995         0.013065   
    122. D(H  25,O  14,P  12,O  15)    -85.9714         0.013742   
    123. D(H  25,O  14,P  12,O  13)     36.1597         0.013742   
    124. D(H  25,O  14,P  12,O  11)    163.9601         0.013742   
    125. D(H  26,O  15,P  12,O  14)    156.4480         0.013704   
    126. D(H  26,O  15,P  12,O  13)     34.1026         0.013704   
    127. D(H  26,O  15,P  12,O  11)    -93.0936         0.013704   
    -----------------------------------------------------------------

Number of atoms                         .... 27
Number of degrees of freedom            .... 127

         *************************************************************
         *                GEOMETRY OPTIMIZATION CYCLE   1            *
         *************************************************************
---------------------------------
CARTESIAN COORDINATES (ANGSTROEM)
---------------------------------
  C    -1.136600    0.889300    1.223300
  C    -1.362200    0.463400   -0.227200
  O    -1.245500    1.667300   -1.037800
  C    -2.808600   -0.039900   -0.366700
  O    -3.659700    0.475200   -1.077700
  O    -3.118400   -1.075000    0.433600
  C    -0.350800   -0.558500   -0.820100
  O    -0.481000   -0.520300   -2.259300
  C    -0.620200   -1.978300   -0.307900
  O    -0.965200   -2.930000   -1.003900
  C     1.125300   -0.237900   -0.525600
  O     1.443800   -0.386600    0.849000
  P     2.849600    0.173100    1.369900
  O     3.142000   -0.047800    2.811900
  O     2.882600    1.710000    0.951900
  O     3.940100   -0.481500    0.410000
  H    -1.961200    1.524400    1.570200
  H    -0.231500    1.496600    1.327900
  H    -1.076400    0.032300    1.901100
  H    -2.125100    2.099000   -1.031300
  H    -4.043700   -1.307100    0.197000
  H    -0.701400    0.407100   -2.485800
  H    -0.491600   -2.118600    0.780100
  H     1.770400   -0.913500   -1.100900
  H     1.359400    0.778500   -0.862600
  H     3.576500    2.189300    1.439700
  H     4.289200   -1.310500    0.787100

----------------------------
CARTESIAN COORDINATES (A.U.)
----------------------------
  NO LB    ZA    FRAG    MASS        X           Y           Z
   0 C   6.0000    0    12.011   -2.147863    1.680533    2.311702
   1 C   6.0000    0    12.011   -2.574185    0.875699   -0.429346
   2 O   8.0000    0    15.999   -2.353654    3.150740   -1.961158
   3 C   6.0000    0    12.011   -5.307485   -0.075400   -0.692963
   4 O   8.0000    0    15.999   -6.915831    0.897998   -2.036558
   5 O   8.0000    0    15.999   -5.892922   -2.031456    0.819385
   6 C   6.0000    0    12.011   -0.662916   -1.055412   -1.549764
   7 O   8.0000    0    15.999   -0.908958   -0.983225   -4.269458
   8 C   6.0000    0    12.011   -1.172008   -3.738445   -0.581847
   9 O   8.0000    0    15.999   -1.823964   -5.536898   -1.897096
  10 C   6.0000    0    12.011    2.126509   -0.449566   -0.993240
  11 O   8.0000    0    15.999    2.728387   -0.730568    1.604377
  12 P  15.0000    0    30.974    5.384964    0.327112    2.588736
  13 O   8.0000    0    15.999    5.937520   -0.090329    5.313721
  14 O   8.0000    0    15.999    5.447325    3.231432    1.798830
  15 O   8.0000    0    15.999    7.445710   -0.909903    0.774788
  16 H   1.0000    0     1.008   -3.706131    2.880699    2.967248
  17 H   1.0000    0     1.008   -0.437472    2.828164    2.509367
  18 H   1.0000    0     1.008   -2.034101    0.061038    3.592558
  19 H   1.0000    0     1.008   -4.015857    3.966535   -1.948875
  20 H   1.0000    0     1.008   -7.641486   -2.470061    0.372276
  21 H   1.0000    0     1.008   -1.325454    0.769308   -4.697481
  22 H   1.0000    0     1.008   -0.928989   -4.003574    1.474175
  23 H   1.0000    0     1.008    3.345571   -1.726265   -2.080400
  24 H   1.0000    0     1.008    2.568894    1.471152   -1.630078
  25 H   1.0000    0     1.008    6.758606    4.137177    2.720639
  26 H   1.0000    0     1.008    8.105413   -2.476486    1.487403

      -----------------------------------------------------------      
     |                   =====================                   |     
     |                           x T B                           |     
     |                   =====================                   |     
     |                         S. Grimme                         |     
     |          Mulliken Center for Theoretical Chemistry        |     
     |                    University of Bonn                     |     
      -----------------------------------------------------------      

   * xtb version 6.5.1 (579679a) compiled by 'ehlert@majestix' on 2022-07-11

   xtb is free software: you can redistribute it and/or modify it under
   the terms of the GNU Lesser General Public License as published by
   the Free Software Foundation, either version 3 of the License, or
   (at your option) any later version.
   
   xtb is distributed in the hope that it will be useful,
   but WITHOUT ANY WARRANTY; without even the implied warranty of
   MERCHANTABILITY or FITNESS FOR A PARTICULAR PURPOSE.  See the
   GNU Lesser General Public License for more details.
   
   Cite this work as:
   * C. Bannwarth, E. Caldeweyher, S. Ehlert, A. Hansen, P. Pracht,
     J. Seibert, S. Spicher, S. Grimme, WIREs Comput. Mol. Sci., 2020, 11,
     e01493. DOI: 10.1002/wcms.1493
   
   for GFN2-xTB:
   * C. Bannwarth, S. Ehlert and S. Grimme., J. Chem. Theory Comput., 2019,
     15, 1652-1671. DOI: 10.1021/acs.jctc.8b01176
   for GFN1-xTB:
   * S. Grimme, C. Bannwarth, P. Shushkov, J. Chem. Theory Comput., 2017,
     13, 1989-2009. DOI: 10.1021/acs.jctc.7b00118
   for GFN0-xTB:
   * P. Pracht, E. Caldeweyher, S. Ehlert, S. Grimme, ChemRxiv, 2019, preprint.
     DOI: 10.26434/chemrxiv.8326202.v1
   for GFN-FF:
   * S. Spicher and S. Grimme, Angew. Chem. Int. Ed., 2020, 59, 15665-15673.
     DOI: 10.1002/anie.202004239
   
   for ALPB and GBSA implicit solvation:
   * S. Ehlert, M. Stahn, S. Spicher, S. Grimme, J. Chem. Theory Comput.,
     2021, 17, 4250-4261. DOI: 10.1021/acs.jctc.1c00471
   
   for DFT-D4:
   * E. Caldeweyher, C. Bannwarth and S. Grimme, J. Chem. Phys., 2017,
     147, 034112. DOI: 10.1063/1.4993215
   * E. Caldeweyher, S. Ehlert, A. Hansen, H. Neugebauer, S. Spicher,
     C. Bannwarth and S. Grimme, J. Chem. Phys., 2019, 150, 154122.
     DOI: 10.1063/1.5090222
   * E. Caldeweyher, J.-M. Mewes, S. Ehlert and S. Grimme, Phys. Chem. Chem. Phys.
     2020, 22, 8499-8512. DOI: 10.1039/D0CP00502A
   
   for sTDA-xTB:
   * S. Grimme and C. Bannwarth, J. Chem. Phys., 2016, 145, 054103.
     DOI: 10.1063/1.4959605
   
   in the mass-spec context:
   * V. Asgeirsson, C. Bauer and S. Grimme, Chem. Sci., 2017, 8, 4879.
     DOI: 10.1039/c7sc00601b
   * J. Koopman and S. Grimme, ACS Omega 2019, 4, 12, 15120-15133.
     DOI: 10.1021/acsomega.9b02011
   
   for metadynamics refer to:
   * S. Grimme, J. Chem. Theory Comput., 2019, 155, 2847-2862
     DOI: 10.1021/acs.jctc.9b00143
   
   for SPH calculations refer to:
   * S. Spicher and S. Grimme, J. Chem. Theory Comput., 2021, 17, 1701-1714
     DOI: 10.1021/acs.jctc.0c01306
   
   with help from (in alphabetical order)
   P. Atkinson, C. Bannwarth, F. Bohle, G. Brandenburg, E. Caldeweyher
   M. Checinski, S. Dohm, S. Ehlert, S. Ehrlich, I. Gerasimov, C. Hölzer
   A. Katbashev, J. Koopman, C. Lavigne, S. Lehtola, F. März, M. Müller,
   F. Musil, H. Neugebauer, J. Pisarek, C. Plett, P. Pracht, F. Pultar,
   J. Seibert, P. Shushkov, S. Spicher, M. Stahn, M. Steiner, T. Strunk,
   J. Stückrath, T. Rose, and J. Unsleber
   
 * started run on 2023/12/07 at 00:37:17.502     

           -------------------------------------------------
          |                Calculation Setup                |
           -------------------------------------------------

          program call               : otool_xtb /tmp/35_XTB.xyz --grad -c 0 -u 0 -P 1 --namespace /tmp/35 --input /tmp/35_XTB.input.tmp --acc 1.000000
          calculation namespace      : /tmp/35
          coordinate file            : /tmp/35_XTB.xyz
          omp threads                :                     1

   ID    Z sym.   atoms
    1    6 C      1, 2, 4, 7, 9, 11
    2    8 O      3, 5, 6, 8, 10, 12, 14-16
    3   15 P      13
    4    1 H      17-27

           -------------------------------------------------
          |                 G F N 2 - x T B                 |
           -------------------------------------------------

        Reference                      10.1021/acs.jctc.8b01176
      * Hamiltonian:
        H0-scaling (s, p, d)           1.850000    2.230000    2.230000
        zeta-weighting                 0.500000
      * Dispersion:
        s8                             2.700000
        a1                             0.520000
        a2                             5.000000
        s9                             5.000000
      * Repulsion:
        kExp                           1.500000    1.000000
        rExp                           1.000000
      * Coulomb:
        alpha                          2.000000
        third order                    shell-resolved
        anisotropic                    true
        a3                             3.000000
        a5                             4.000000
        cn-shift                       1.200000
        cn-exp                         4.000000
        max-rad                        5.000000


          ...................................................
          :                      SETUP                      :
          :.................................................:
          :  # basis functions                  81          :
          :  # atomic orbitals                  80          :
          :  # shells                           44          :
          :  # electrons                        94          :
          :  max. iterations                   250          :
          :  Hamiltonian                  GFN2-xTB          :
          :  restarted?                      false          :
          :  GBSA solvation                  false          :
          :  PC potential                    false          :
          :  electronic temp.          300.0000000     K    :
          :  accuracy                    1.0000000          :
          :  -> integral cutoff          0.2500000E+02      :
          :  -> integral neglect         0.1000000E-07      :
          :  -> SCF convergence          0.1000000E-05 Eh   :
          :  -> wf. convergence          0.1000000E-03 e    :
          :  Broyden damping             0.4000000          :
          ...................................................

 iter      E             dE          RMSdq      gap      omega  full diag
   1    -57.9541926 -0.579542E+02  0.657E+00    3.87       0.0  T
   2    -58.0422188 -0.880262E-01  0.362E+00    3.16       1.0  T
   3    -58.0432302 -0.101143E-02  0.170E+00    3.65       1.0  T
   4    -58.0672013 -0.239710E-01  0.600E-01    3.26       1.0  T
   5    -58.0681758 -0.974595E-03  0.240E-01    3.38       1.0  T
   6    -58.0685211 -0.345236E-03  0.846E-02    3.33       1.0  T
   7    -58.0685579 -0.368259E-04  0.481E-02    3.33       1.0  T
   8    -58.0685639 -0.601777E-05  0.143E-02    3.33       1.3  T
   9    -58.0685645 -0.523894E-06  0.745E-03    3.33       2.6  T
  10    -58.0685648 -0.312355E-06  0.171E-03    3.33      11.3  T
  11    -58.0685648 -0.104766E-07  0.686E-04    3.33      28.1  T
  12    -58.0685648 -0.295181E-08  0.213E-04    3.33      90.2  T

   *** convergence criteria satisfied after 12 iterations ***

         #    Occupation            Energy/Eh            Energy/eV
      -------------------------------------------------------------
         1        2.0000           -0.7757862             -21.1102
       ...           ...                  ...                  ...
        41        2.0000           -0.4717224             -12.8362
        42        2.0000           -0.4628670             -12.5953
        43        2.0000           -0.4498126             -12.2400
        44        2.0000           -0.4483952             -12.2015
        45        2.0000           -0.4431955             -12.0600
        46        2.0000           -0.4394290             -11.9575
        47        2.0000           -0.4177906             -11.3687 (HOMO)
        48                         -0.2953438              -8.0367 (LUMO)
        49                         -0.2781531              -7.5689
        50                         -0.1030677              -2.8046
        51                         -0.0574643              -1.5637
        52                         -0.0490346              -1.3343
       ...                                ...                  ...
        80                          1.2067536              32.8374
      -------------------------------------------------------------
                  HL-Gap            0.1224468 Eh            3.3319 eV
             Fermi-level           -0.3565672 Eh           -9.7027 eV

 SCC (total)                   0 d,  0 h,  0 min,  0.034 sec
 SCC setup                      ...        0 min,  0.000 sec (  0.538%)
 Dispersion                     ...        0 min,  0.000 sec (  0.605%)
 classical contributions        ...        0 min,  0.000 sec (  0.125%)
 integral evaluation            ...        0 min,  0.005 sec ( 14.923%)
 iterations                     ...        0 min,  0.014 sec ( 39.789%)
 molecular gradient             ...        0 min,  0.015 sec ( 43.541%)
 printout                       ...        0 min,  0.000 sec (  0.442%)

         :::::::::::::::::::::::::::::::::::::::::::::::::::::
         ::                     SUMMARY                     ::
         :::::::::::::::::::::::::::::::::::::::::::::::::::::
         :: total energy             -57.690755731227 Eh    ::
         :: gradient norm              0.118498578433 Eh/a0 ::
         :: HOMO-LUMO gap              3.331947720587 eV    ::
         ::.................................................::
         :: SCC energy               -58.068564777872 Eh    ::
         :: -> isotropic ES            0.220808759577 Eh    ::
         :: -> anisotropic ES         -0.002688953936 Eh    ::
         :: -> anisotropic XC         -0.001749879202 Eh    ::
         :: -> dispersion             -0.026541509097 Eh    ::
         :: repulsion energy           0.377507316205 Eh    ::
         :: add. restraining           0.000000000000 Eh    ::
         :: total charge              -0.000000000000 e     ::
         :::::::::::::::::::::::::::::::::::::::::::::::::::::


Property printout bound to 'properties.out'

           -------------------------------------------------
          | TOTAL ENERGY              -57.690755731227 Eh   |
          | GRADIENT NORM               0.118498578433 Eh/α |
          | HOMO-LUMO GAP               3.331947720587 eV   |
           -------------------------------------------------

------------------------------------------------------------------------
 * finished run on 2023/12/07 at 00:37:17.548     
------------------------------------------------------------------------
 total:
 * wall-time:     0 d,  0 h,  0 min,  0.046 sec
 *  cpu-time:     0 d,  0 h,  0 min,  0.044 sec
 * ratio c/w:     0.952 speedup
 SCF:
 * wall-time:     0 d,  0 h,  0 min,  0.035 sec
 *  cpu-time:     0 d,  0 h,  0 min,  0.036 sec
 * ratio c/w:     1.043 speedup


-------------------------   --------------------
FINAL SINGLE POINT ENERGY       -57.690755731230
-------------------------   --------------------

------------------------------------------------------------------------------
                         ORCA GEOMETRY RELAXATION STEP
------------------------------------------------------------------------------

Reading the OPT-File                    .... done
Getting information on internals        .... done
Copying old internal coords+grads       .... done
Making the new internal coordinates     .... (new redundants).... done
Validating the new internal coordinates .... (new redundants).... done
Calculating the B-matrix                .... done
Calculating the G,G- and P matrices     .... done
Transforming gradient to internals      .... done
Projecting the internal gradient        .... done
Number of atoms                         ....  27
Number of internal coordinates          .... 127
Current Energy                          ....   -57.690755731 Eh
Current gradient norm                   ....     0.118498578 Eh/bohr
Maximum allowed component of the step   ....  0.300
Current trust radius                    ....  0.300
Evaluating the initial hessian          ....  (Almloef) done
Projecting the Hessian                  .... done
Forming the augmented Hessian           .... done
Diagonalizing the augmented Hessian     .... done
Last element of RFO vector              ....  0.962406740
Lowest eigenvalues of augmented Hessian:
 -0.014766437  0.009398956  0.010056549  0.010210021  0.010361304
Length of the computed step             ....  0.282221990
The final length of the internal step   ....  0.282221990
Converting the step to cartesian space:
 Initial RMS(Int)=    0.0250431520
Transforming coordinates:
 Iter   0:  RMS(Cart)=    0.0600834876 RMS(Int)=    0.5553250009
 Iter   1:  RMS(Cart)=    0.0013937901 RMS(Int)=    0.0008871132
 Iter   2:  RMS(Cart)=    0.0000832163 RMS(Int)=    0.0000425049
 Iter   3:  RMS(Cart)=    0.0000075446 RMS(Int)=    0.0000053515
 Iter   4:  RMS(Cart)=    0.0000006259 RMS(Int)=    0.0000002860
 Iter   5:  RMS(Cart)=    0.0000000579 RMS(Int)=    0.0000000411
done
Storing new coordinates                 .... done

                                .--------------------.
          ----------------------|Geometry convergence|-------------------------
          Item                value                   Tolerance       Converged
          ---------------------------------------------------------------------
          RMS gradient        0.0081533224            0.0001000000      NO
          MAX gradient        0.0517410995            0.0003000000      NO
          RMS step            0.0250431520            0.0020000000      NO
          MAX step            0.0882962485            0.0040000000      NO
          ........................................................
          Max(Bonds)      0.0277      Max(Angles)    2.26
          Max(Dihed)        5.06      Max(Improp)    0.00
          ---------------------------------------------------------------------

The optimization has not yet converged - more geometry cycles are needed


    ---------------------------------------------------------------------------
                         Redundant Internal Coordinates
                            (Angstroem and degrees)

        Definition                    Value    dE/dq     Step     New-Value
    ----------------------------------------------------------------------------
     1. B(C   1,C   0)                1.5285  0.002186 -0.0030    1.5255   
     2. B(O   2,C   1)                1.4560  0.018621 -0.0217    1.4343   
     3. B(C   3,C   1)                1.5378  0.011548 -0.0162    1.5216   
     4. B(O   4,C   3)                1.2228  0.032799 -0.0165    1.2062   
     5. B(O   5,C   3)                1.3446  0.011517 -0.0090    1.3356   
     6. B(C   6,C   1)                1.5552  0.006992 -0.0104    1.5448   
     7. B(O   7,C   6)                1.4456  0.024680 -0.0277    1.4179   
     8. B(C   8,C   6)                1.5332  0.010253 -0.0141    1.5191   
     9. B(O   9,C   8)                1.2285  0.051741 -0.0266    1.2018   
    10. B(C  10,C   6)                1.5390  0.001868 -0.0026    1.5363   
    11. B(O  11,C  10)                1.4188 -0.000773  0.0008    1.4196   
    12. B(P  12,O  11)                1.6003  0.009827 -0.0059    1.5944   
    13. B(O  13,P  12)                1.4878  0.033185 -0.0132    1.4746   
    14. B(O  14,P  12)                1.5931  0.003173 -0.0019    1.5912   
    15. B(O  15,P  12)                1.5935 -0.005530  0.0032    1.5967   
    16. B(H  16,C   0)                1.0971  0.003698 -0.0054    1.0918   
    17. B(H  17,C   0)                1.0950  0.005413 -0.0078    1.0872   
    18. B(H  18,C   0)                1.0943  0.005290 -0.0076    1.0867   
    19. B(H  19,O   2)                0.9798  0.010868 -0.0115    0.9683   
    20. B(H  20,O   5)                0.9829  0.007582 -0.0081    0.9747   
    21. B(H  21,O   7)                0.9798  0.007736 -0.0082    0.9716   
    22. B(H  22,C   8)                1.1045  0.003192 -0.0047    1.0998   
    23. B(H  23,C  10)                1.0971  0.001017 -0.0015    1.0956   
    24. B(H  24,C  10)                1.0961  0.000731 -0.0011    1.0950   
    25. B(H  25,O  14)                0.9743  0.016052 -0.0167    0.9575   
    26. B(H  26,O  15)                0.9754  0.016304 -0.0170    0.9583   
    27. A(H  16,C   0,H  17)          105.66 -0.005474    1.25    106.92   
    28. A(C   1,C   0,H  16)          110.51  0.003914   -0.52    110.00   
    29. A(H  16,C   0,H  18)          107.39 -0.003030    0.66    108.05   
    30. A(C   1,C   0,H  17)          111.54  0.004808   -0.91    110.64   
    31. A(C   1,C   0,H  18)          112.19  0.000873   -0.30    111.89   
    32. A(H  17,C   0,H  18)          109.25 -0.001771   -0.04    109.21   
    33. A(C   0,C   1,C   6)          116.67  0.001627   -0.62    116.05   
    34. A(O   2,C   1,C   3)          107.19 -0.000367    0.43    107.62   
    35. A(C   3,C   1,C   6)          111.23  0.001876   -1.39    109.83   
    36. A(C   0,C   1,C   3)          108.43 -0.000725    0.13    108.55   
    37. A(O   2,C   1,C   6)          106.20  0.002315   -0.55    105.64   
    38. A(C   0,C   1,O   2)          106.62 -0.005144    2.26    108.89   
    39. A(C   1,O   2,H  19)          106.78 -0.002760    0.44    107.22   
    40. A(O   4,C   3,O   5)          120.66 -0.012203    1.51    122.18   
    41. A(C   1,C   3,O   4)          124.72  0.007329   -0.86    123.86   
    42. A(C   1,C   3,O   5)          114.50  0.004848   -0.57    113.92   
    43. A(C   3,O   5,H  20)          104.80 -0.013010    1.94    106.74   
    44. A(O   7,C   6,C  10)          105.75 -0.001984    0.94    106.69   
    45. A(C   1,C   6,C  10)          114.45  0.003542   -0.84    113.61   
    46. A(O   7,C   6,C   8)          109.95  0.001923   -0.36    109.59   
    47. A(C   1,C   6,C   8)          111.52  0.000931   -0.63    110.89   
    48. A(C   1,C   6,O   7)          107.67 -0.001726    0.43    108.11   
    49. A(C   8,C   6,C  10)          107.31 -0.002750    0.52    107.83   
    50. A(C   6,O   7,H  21)          105.99 -0.000359    0.06    106.04   
    51. A(C   6,C   8,O   9)          125.27  0.002060   -0.23    125.04   
    52. A(O   9,C   8,H  22)          119.50 -0.006863    1.04    120.53   
    53. A(C   6,C   8,H  22)          115.23  0.004791   -0.78    114.45   
    54. A(O  11,C  10,H  24)          110.31 -0.002016    0.31    110.62   
    55. A(H  23,C  10,H  24)          106.51 -0.002689    0.94    107.45   
    56. A(C   6,C  10,H  24)          109.83  0.001107   -0.40    109.42   
    57. A(O  11,C  10,H  23)          108.15 -0.004601    0.90    109.05   
    58. A(C   6,C  10,H  23)          109.59  0.004289   -0.95    108.65   
    59. A(C   6,C  10,O  11)          112.26  0.003555   -0.71    111.56   
    60. A(C  10,O  11,P  12)          118.42  0.001296   -0.15    118.26   
    61. A(O  14,P  12,O  15)          102.95  0.001969   -0.15    102.80   
    62. A(O  13,P  12,O  15)          112.85 -0.003392    0.82    113.67   
    63. A(O  11,P  12,O  15)          105.15 -0.002892    0.15    105.31   
    64. A(O  13,P  12,O  14)          113.17 -0.008334    1.12    114.29   
    65. A(O  11,P  12,O  14)          105.68  0.009250   -1.47    104.20   
    66. A(O  11,P  12,O  13)          115.86  0.004079   -0.59    115.27   
    67. A(P  12,O  14,H  25)          110.98  0.004929   -0.65    110.32   
    68. A(P  12,O  15,H  26)          111.17  0.002970   -0.39    110.78   
    69. D(O   2,C   1,C   0,H  16)     67.56 -0.001300    0.21     67.77   
    70. D(C   3,C   1,C   0,H  17)   -164.80  0.003403   -2.16   -166.96   
    71. D(O   2,C   1,C   0,H  17)    -49.68  0.000013   -0.45    -50.13   
    72. D(C   6,C   1,C   0,H  16)   -174.04 -0.001122    0.78   -173.25   
    73. D(C   3,C   1,C   0,H  18)     72.25  0.001508   -1.21     71.04   
    74. D(O   2,C   1,C   0,H  18)   -172.63 -0.001883    0.50   -172.12   
    75. D(C   3,C   1,C   0,H  16)    -47.56  0.002091   -1.50    -49.07   
    76. D(C   6,C   1,C   0,H  18)    -54.22 -0.001705    1.07    -53.15   
    77. D(C   6,C   1,C   0,H  17)     68.73  0.000191    0.12     68.85   
    78. D(H  19,O   2,C   1,C   6)    149.88  0.002511   -3.63    146.25   
    79. D(H  19,O   2,C   1,C   3)     30.90 -0.000675   -1.94     28.96   
    80. D(H  19,O   2,C   1,C   0)    -85.05  0.002855   -3.41    -88.46   
    81. D(O   4,C   3,C   1,C   6)   -113.18  0.000627   -2.49   -115.67   
    82. D(O   4,C   3,C   1,C   0)    117.25 -0.002354   -0.72    116.53   
    83. D(O   5,C   3,C   1,C   6)     70.78  0.001569   -3.91     66.87   
    84. D(O   5,C   3,C   1,O   2)   -173.54  0.005121   -5.06   -178.60   
    85. D(O   5,C   3,C   1,C   0)    -58.79 -0.001412   -2.14    -60.93   
    86. D(O   4,C   3,C   1,O   2)      2.50  0.004179   -3.64     -1.14   
    87. D(H  20,O   5,C   3,O   4)      6.66  0.000759   -1.50      5.16   
    88. D(H  20,O   5,C   3,C   1)   -177.12  0.000674   -0.24   -177.37   
    89. D(C  10,C   6,C   1,C   3)   -170.88 -0.000180    0.13   -170.75   
    90. D(C  10,C   6,C   1,O   2)     72.83 -0.002046    0.65     73.49   
    91. D(C   8,C   6,C   1,C   3)    -48.83 -0.000452   -0.29    -49.13   
    92. D(C   8,C   6,C   1,O   2)   -165.12 -0.002318    0.23   -164.89   
    93. D(C   8,C   6,C   1,C   0)     76.24  0.001549   -1.87     74.37   
    94. D(C  10,C   6,C   1,C   0)    -45.81  0.001821   -1.44    -47.25   
    95. D(O   7,C   6,C   1,O   2)    -44.41 -0.000503   -0.32    -44.73   
    96. D(O   7,C   6,C   1,C   0)   -163.05  0.003364   -2.42   -165.47   
    97. D(O   7,C   6,C   1,C   3)     71.88  0.001364   -0.84     71.04   
    98. D(H  21,O   7,C   6,C   8)    155.19  0.001329   -0.20    154.99   
    99. D(H  21,O   7,C   6,C   1)     33.51  0.000118    0.51     34.02   
   100. D(H  21,O   7,C   6,C  10)    -89.26 -0.002019    0.74    -88.52   
   101. D(H  22,C   8,C   6,C  10)     62.37  0.003052   -3.18     59.19   
   102. D(H  22,C   8,C   6,O   7)    176.92  0.000201   -1.97    174.95   
   103. D(H  22,C   8,C   6,C   1)    -63.71 -0.000101   -2.07    -65.78   
   104. D(O   9,C   8,C   6,C  10)   -118.12  0.001359    0.70   -117.42   
   105. D(O   9,C   8,C   6,O   7)     -3.57 -0.001491    1.91     -1.66   
   106. D(O   9,C   8,C   6,C   1)    115.80 -0.001793    1.81    117.61   
   107. D(H  24,C  10,C   6,O   7)     63.54 -0.001291    1.66     65.20   
   108. D(H  24,C  10,C   6,C   1)    -54.80  0.000165    0.97    -53.83   
   109. D(H  23,C  10,C   6,C   8)     64.19 -0.001262    1.61     65.81   
   110. D(H  23,C  10,C   6,O   7)    -53.14 -0.001175    1.31    -51.83   
   111. D(H  23,C  10,C   6,C   1)   -171.49  0.000282    0.62   -170.87   
   112. D(O  11,C  10,C   6,C   8)    -56.01 -0.000691    1.58    -54.43   
   113. D(O  11,C  10,C   6,O   7)   -173.34 -0.000603    1.28   -172.07   
   114. D(H  24,C  10,C   6,C   8)   -179.12 -0.001378    1.96   -177.16   
   115. D(O  11,C  10,C   6,C   1)     68.31  0.000853    0.59     68.90   
   116. D(P  12,O  11,C  10,H  24)    -45.60  0.003024   -0.67    -46.28   
   117. D(P  12,O  11,C  10,H  23)     70.52 -0.003937    1.14     71.66   
   118. D(P  12,O  11,C  10,C   6)   -168.45  0.000555    0.12   -168.33   
   119. D(O  15,P  12,O  11,C  10)    -52.96 -0.002113   -1.00    -53.96   
   120. D(O  14,P  12,O  11,C  10)     55.53  0.002456   -1.66     53.87   
   121. D(O  13,P  12,O  11,C  10)   -178.30  0.001816   -1.79   -180.09   
   122. D(H  25,O  14,P  12,O  15)    -85.97  0.003156   -1.52    -87.50   
   123. D(H  25,O  14,P  12,O  13)     36.16 -0.004187   -0.02     36.14   
   124. D(H  25,O  14,P  12,O  11)    163.96  0.002357   -1.12    162.84   
   125. D(H  26,O  15,P  12,O  14)    156.45 -0.006210   -0.15    156.30   
   126. D(H  26,O  15,P  12,O  13)     34.10  0.004448   -1.85     32.25   
   127. D(H  26,O  15,P  12,O  11)    -93.09  0.003630   -1.76    -94.85   
    ----------------------------------------------------------------------------

         *************************************************************
         *                GEOMETRY OPTIMIZATION CYCLE   2            *
         *************************************************************
---------------------------------
CARTESIAN COORDINATES (ANGSTROEM)
---------------------------------
  C    -1.105845    0.874844    1.233014
  C    -1.346362    0.488212   -0.222957
  O    -1.224753    1.660293   -1.040722
  C    -2.773796   -0.021154   -0.358368
  O    -3.618674    0.517485   -1.029993
  O    -3.035459   -1.102091    0.381113
  C    -0.363464   -0.541865   -0.822378
  O    -0.514920   -0.527111   -2.232043
  C    -0.651450   -1.936627   -0.293865
  O    -0.987642   -2.873334   -0.967642
  C     1.111850   -0.224943   -0.533731
  O     1.421321   -0.390184    0.841857
  P     2.819692    0.161878    1.372760
  O     3.072307   -0.042940    2.811062
  O     2.836412    1.686047    0.916022
  O     3.921535   -0.502710    0.427417
  H    -1.919172    1.509707    1.589926
  H    -0.188954    1.450963    1.329910
  H    -1.050312    0.003316    1.879781
  H    -2.098926    2.074979   -1.079048
  H    -3.954177   -1.361392    0.184102
  H    -0.722070    0.391727   -2.470251
  H    -0.472133   -2.060296    0.784126
  H     1.737849   -0.902441   -1.124878
  H     1.335325    0.796444   -0.859244
  H     3.499374    2.172882    1.406285
  H     4.272241   -1.301690    0.823644

----------------------------
CARTESIAN COORDINATES (A.U.)
----------------------------
  NO LB    ZA    FRAG    MASS        X           Y           Z
   0 C   6.0000    0    12.011   -2.089743    1.653215    2.330060
   1 C   6.0000    0    12.011   -2.544256    0.922586   -0.421328
   2 O   8.0000    0    15.999   -2.314447    3.137500   -1.966680
   3 C   6.0000    0    12.011   -5.241714   -0.039975   -0.677217
   4 O   8.0000    0    15.999   -6.838303    0.977906   -1.946404
   5 O   8.0000    0    15.999   -5.736186   -2.082651    0.720198
   6 C   6.0000    0    12.011   -0.686847   -1.023977   -1.554069
   7 O   8.0000    0    15.999   -0.973057   -0.996095   -4.217950
   8 C   6.0000    0    12.011   -1.231062   -3.659695   -0.555324
   9 O   8.0000    0    15.999   -1.866374   -5.429815   -1.828579
  10 C   6.0000    0    12.011    2.101092   -0.425081   -1.008606
  11 O   8.0000    0    15.999    2.685907   -0.737341    1.590880
  12 P  15.0000    0    30.974    5.328445    0.305905    2.594140
  13 O   8.0000    0    15.999    5.805819   -0.081144    5.312138
  14 O   8.0000    0    15.999    5.360042    3.186166    1.731032
  15 O   8.0000    0    15.999    7.410627   -0.949985    0.807701
  16 H   1.0000    0     1.008   -3.626709    2.852934    3.004525
  17 H   1.0000    0     1.008   -0.357071    2.741924    2.513166
  18 H   1.0000    0     1.008   -1.984803    0.006267    3.552272
  19 H   1.0000    0     1.008   -3.966394    3.921142   -2.039106
  20 H   1.0000    0     1.008   -7.472311   -2.572658    0.347902
  21 H   1.0000    0     1.008   -1.364514    0.740258   -4.668098
  22 H   1.0000    0     1.008   -0.892202   -3.893395    1.481784
  23 H   1.0000    0     1.008    3.284059   -1.705367   -2.125711
  24 H   1.0000    0     1.008    2.523399    1.505061   -1.623735
  25 H   1.0000    0     1.008    6.612859    4.106152    2.657494
  26 H   1.0000    0     1.008    8.073366   -2.459837    1.556461

      -----------------------------------------------------------      
     |                   =====================                   |     
     |                           x T B                           |     
     |                   =====================                   |     
     |                         S. Grimme                         |     
     |          Mulliken Center for Theoretical Chemistry        |     
     |                    University of Bonn                     |     
      -----------------------------------------------------------      

   * xtb version 6.5.1 (579679a) compiled by 'ehlert@majestix' on 2022-07-11

   xtb is free software: you can redistribute it and/or modify it under
   the terms of the GNU Lesser General Public License as published by
   the Free Software Foundation, either version 3 of the License, or
   (at your option) any later version.
   
   xtb is distributed in the hope that it will be useful,
   but WITHOUT ANY WARRANTY; without even the implied warranty of
   MERCHANTABILITY or FITNESS FOR A PARTICULAR PURPOSE.  See the
   GNU Lesser General Public License for more details.
   
   Cite this work as:
   * C. Bannwarth, E. Caldeweyher, S. Ehlert, A. Hansen, P. Pracht,
     J. Seibert, S. Spicher, S. Grimme, WIREs Comput. Mol. Sci., 2020, 11,
     e01493. DOI: 10.1002/wcms.1493
   
   for GFN2-xTB:
   * C. Bannwarth, S. Ehlert and S. Grimme., J. Chem. Theory Comput., 2019,
     15, 1652-1671. DOI: 10.1021/acs.jctc.8b01176
   for GFN1-xTB:
   * S. Grimme, C. Bannwarth, P. Shushkov, J. Chem. Theory Comput., 2017,
     13, 1989-2009. DOI: 10.1021/acs.jctc.7b00118
   for GFN0-xTB:
   * P. Pracht, E. Caldeweyher, S. Ehlert, S. Grimme, ChemRxiv, 2019, preprint.
     DOI: 10.26434/chemrxiv.8326202.v1
   for GFN-FF:
   * S. Spicher and S. Grimme, Angew. Chem. Int. Ed., 2020, 59, 15665-15673.
     DOI: 10.1002/anie.202004239
   
   for ALPB and GBSA implicit solvation:
   * S. Ehlert, M. Stahn, S. Spicher, S. Grimme, J. Chem. Theory Comput.,
     2021, 17, 4250-4261. DOI: 10.1021/acs.jctc.1c00471
   
   for DFT-D4:
   * E. Caldeweyher, C. Bannwarth and S. Grimme, J. Chem. Phys., 2017,
     147, 034112. DOI: 10.1063/1.4993215
   * E. Caldeweyher, S. Ehlert, A. Hansen, H. Neugebauer, S. Spicher,
     C. Bannwarth and S. Grimme, J. Chem. Phys., 2019, 150, 154122.
     DOI: 10.1063/1.5090222
   * E. Caldeweyher, J.-M. Mewes, S. Ehlert and S. Grimme, Phys. Chem. Chem. Phys.
     2020, 22, 8499-8512. DOI: 10.1039/D0CP00502A
   
   for sTDA-xTB:
   * S. Grimme and C. Bannwarth, J. Chem. Phys., 2016, 145, 054103.
     DOI: 10.1063/1.4959605
   
   in the mass-spec context:
   * V. Asgeirsson, C. Bauer and S. Grimme, Chem. Sci., 2017, 8, 4879.
     DOI: 10.1039/c7sc00601b
   * J. Koopman and S. Grimme, ACS Omega 2019, 4, 12, 15120-15133.
     DOI: 10.1021/acsomega.9b02011
   
   for metadynamics refer to:
   * S. Grimme, J. Chem. Theory Comput., 2019, 155, 2847-2862
     DOI: 10.1021/acs.jctc.9b00143
   
   for SPH calculations refer to:
   * S. Spicher and S. Grimme, J. Chem. Theory Comput., 2021, 17, 1701-1714
     DOI: 10.1021/acs.jctc.0c01306
   
   with help from (in alphabetical order)
   P. Atkinson, C. Bannwarth, F. Bohle, G. Brandenburg, E. Caldeweyher
   M. Checinski, S. Dohm, S. Ehlert, S. Ehrlich, I. Gerasimov, C. Hölzer
   A. Katbashev, J. Koopman, C. Lavigne, S. Lehtola, F. März, M. Müller,
   F. Musil, H. Neugebauer, J. Pisarek, C. Plett, P. Pracht, F. Pultar,
   J. Seibert, P. Shushkov, S. Spicher, M. Stahn, M. Steiner, T. Strunk,
   J. Stückrath, T. Rose, and J. Unsleber
   
 * started run on 2023/12/07 at 00:37:17.637     

           -------------------------------------------------
          |                Calculation Setup                |
           -------------------------------------------------

          program call               : otool_xtb /tmp/35_XTB.xyz --grad -c 0 -u 0 -P 1 --namespace /tmp/35 --input /tmp/35_XTB.input.tmp --acc 1.000000
          calculation namespace      : /tmp/35
          coordinate file            : /tmp/35_XTB.xyz
          omp threads                :                     1

   ID    Z sym.   atoms
    1    6 C      1, 2, 4, 7, 9, 11
    2    8 O      3, 5, 6, 8, 10, 12, 14-16
    3   15 P      13
    4    1 H      17-27

           -------------------------------------------------
          |                 G F N 2 - x T B                 |
           -------------------------------------------------

        Reference                      10.1021/acs.jctc.8b01176
      * Hamiltonian:
        H0-scaling (s, p, d)           1.850000    2.230000    2.230000
        zeta-weighting                 0.500000
      * Dispersion:
        s8                             2.700000
        a1                             0.520000
        a2                             5.000000
        s9                             5.000000
      * Repulsion:
        kExp                           1.500000    1.000000
        rExp                           1.000000
      * Coulomb:
        alpha                          2.000000
        third order                    shell-resolved
        anisotropic                    true
        a3                             3.000000
        a5                             4.000000
        cn-shift                       1.200000
        cn-exp                         4.000000
        max-rad                        5.000000

q/qsh data taken from xtbrestart
CAMM data taken from xtbrestart

          ...................................................
          :                      SETUP                      :
          :.................................................:
          :  # basis functions                  81          :
          :  # atomic orbitals                  80          :
          :  # shells                           44          :
          :  # electrons                        94          :
          :  max. iterations                   250          :
          :  Hamiltonian                  GFN2-xTB          :
          :  restarted?                       true          :
          :  GBSA solvation                  false          :
          :  PC potential                    false          :
          :  electronic temp.          300.0000000     K    :
          :  accuracy                    1.0000000          :
          :  -> integral cutoff          0.2500000E+02      :
          :  -> integral neglect         0.1000000E-07      :
          :  -> SCF convergence          0.1000000E-05 Eh   :
          :  -> wf. convergence          0.1000000E-03 e    :
          :  Broyden damping             0.4000000          :
          ...................................................

 iter      E             dE          RMSdq      gap      omega  full diag
   1    -58.1131534 -0.581132E+02  0.292E-01    3.51       0.0  T
   2    -58.1132648 -0.111346E-03  0.165E-01    3.48       1.0  T
   3    -58.1132536  0.112138E-04  0.658E-02    3.50       1.0  T
   4    -58.1132850 -0.314129E-04  0.133E-02    3.48       1.4  T
   5    -58.1132860 -0.106267E-05  0.609E-03    3.49       3.2  T
   6    -58.1132863 -0.222601E-06  0.256E-03    3.49       7.5  T
   7    -58.1132863 -0.116175E-07  0.114E-03    3.49      16.9  T
   8    -58.1132863 -0.539180E-08  0.377E-04    3.49      51.0  T
   9    -58.1132863 -0.335760E-09  0.106E-04    3.49     181.8  T

   *** convergence criteria satisfied after 9 iterations ***

         #    Occupation            Energy/Eh            Energy/eV
      -------------------------------------------------------------
         1        2.0000           -0.7779308             -21.1686
       ...           ...                  ...                  ...
        41        2.0000           -0.4717640             -12.8374
        42        2.0000           -0.4623802             -12.5820
        43        2.0000           -0.4514143             -12.2836
        44        2.0000           -0.4476725             -12.1818
        45        2.0000           -0.4467187             -12.1558
        46        2.0000           -0.4371646             -11.8959
        47        2.0000           -0.4130760             -11.2404 (HOMO)
        48                         -0.2849359              -7.7535 (LUMO)
        49                         -0.2693705              -7.3299
        50                         -0.0913675              -2.4862
        51                         -0.0442794              -1.2049
        52                         -0.0334201              -0.9094
       ...                                ...                  ...
        80                          1.2310530              33.4987
      -------------------------------------------------------------
                  HL-Gap            0.1281401 Eh            3.4869 eV
             Fermi-level           -0.3490059 Eh           -9.4969 eV

 SCC (total)                   0 d,  0 h,  0 min,  0.031 sec
 SCC setup                      ...        0 min,  0.000 sec (  0.602%)
 Dispersion                     ...        0 min,  0.000 sec (  0.644%)
 classical contributions        ...        0 min,  0.000 sec (  0.145%)
 integral evaluation            ...        0 min,  0.005 sec ( 16.850%)
 iterations                     ...        0 min,  0.010 sec ( 33.703%)
 molecular gradient             ...        0 min,  0.015 sec ( 47.546%)
 printout                       ...        0 min,  0.000 sec (  0.464%)

         :::::::::::::::::::::::::::::::::::::::::::::::::::::
         ::                     SUMMARY                     ::
         :::::::::::::::::::::::::::::::::::::::::::::::::::::
         :: total energy             -57.700734267617 Eh    ::
         :: gradient norm              0.054561087344 Eh/a0 ::
         :: HOMO-LUMO gap              3.486870481345 eV    ::
         ::.................................................::
         :: SCC energy               -58.113286275832 Eh    ::
         :: -> isotropic ES            0.218127991040 Eh    ::
         :: -> anisotropic ES         -0.003255099100 Eh    ::
         :: -> anisotropic XC         -0.003399387456 Eh    ::
         :: -> dispersion             -0.026998497908 Eh    ::
         :: repulsion energy           0.412252659996 Eh    ::
         :: add. restraining           0.000000000000 Eh    ::
         :: total charge               0.000000000000 e     ::
         :::::::::::::::::::::::::::::::::::::::::::::::::::::


Property printout bound to 'properties.out'

           -------------------------------------------------
          | TOTAL ENERGY              -57.700734267617 Eh   |
          | GRADIENT NORM               0.054561087344 Eh/α |
          | HOMO-LUMO GAP               3.486870481345 eV   |
           -------------------------------------------------

------------------------------------------------------------------------
 * finished run on 2023/12/07 at 00:37:17.680     
------------------------------------------------------------------------
 total:
 * wall-time:     0 d,  0 h,  0 min,  0.043 sec
 *  cpu-time:     0 d,  0 h,  0 min,  0.040 sec
 * ratio c/w:     0.935 speedup
 SCF:
 * wall-time:     0 d,  0 h,  0 min,  0.031 sec
 *  cpu-time:     0 d,  0 h,  0 min,  0.032 sec
 * ratio c/w:     1.026 speedup


-------------------------   --------------------
FINAL SINGLE POINT ENERGY       -57.700734267620
-------------------------   --------------------

------------------------------------------------------------------------------
                         ORCA GEOMETRY RELAXATION STEP
------------------------------------------------------------------------------

Reading the OPT-File                    .... done
Getting information on internals        .... done
Copying old internal coords+grads       .... done
Making the new internal coordinates     .... (new redundants).... done
Validating the new internal coordinates .... (new redundants).... done
Calculating the B-matrix                .... done
Calculating the G,G- and P matrices     .... done
Transforming gradient to internals      .... done
Projecting the internal gradient        .... done
Number of atoms                         ....  27
Number of internal coordinates          .... 127
Current Energy                          ....   -57.700734268 Eh
Current gradient norm                   ....     0.054561087 Eh/bohr
Maximum allowed component of the step   ....  0.300
Current trust radius                    ....  0.300
Updating the Hessian (BFGS)             .... done
Forming the augmented Hessian           .... done
Diagonalizing the augmented Hessian     .... done
Last element of RFO vector              ....  0.943614096
Lowest eigenvalues of augmented Hessian:
 -0.005507724  0.009449699  0.010097698  0.010220615  0.010597648
Length of the computed step             ....  0.350829315
Warning: the length of the step is outside the trust region - taking restricted step instead
The input lambda is                     ....    -0.005508
   iter:   1  x=   -0.008012  g=   13.208806 f(x)=     0.033081
   iter:   2  x=   -0.008742  g=    8.626799 f(x)=     0.006294
   iter:   3  x=   -0.008786  g=    7.709515 f(x)=     0.000343
   iter:   4  x=   -0.008786  g=    7.657960 f(x)=     0.000001
   iter:   5  x=   -0.008786  g=    7.657787 f(x)=     0.000000
   iter:   6  x=   -0.008786  g=    7.657787 f(x)=     0.000000
The output lambda is                    ....    -0.008786 (6 iterations)
The final length of the internal step   ....  0.300000000
Converting the step to cartesian space:
 Initial RMS(Int)=    0.0266206953
Transforming coordinates:
 Iter   0:  RMS(Cart)=    0.0454542675 RMS(Int)=    0.5530834562
 Iter   1:  RMS(Cart)=    0.0012763367 RMS(Int)=    0.0008322391
 Iter   2:  RMS(Cart)=    0.0000694323 RMS(Int)=    0.0000482029
 Iter   3:  RMS(Cart)=    0.0000051042 RMS(Int)=    0.0000039098
 Iter   4:  RMS(Cart)=    0.0000003743 RMS(Int)=    0.0000002717
 Iter   5:  RMS(Cart)=    0.0000000285 RMS(Int)=    0.0000000223
done
Storing new coordinates                 .... done

                                .--------------------.
          ----------------------|Geometry convergence|-------------------------
          Item                value                   Tolerance       Converged
          ---------------------------------------------------------------------
          Energy change      -0.0099785364            0.0000050000      NO
          RMS gradient        0.0031822437            0.0001000000      NO
          MAX gradient        0.0202842096            0.0003000000      NO
          RMS step            0.0266206953            0.0020000000      NO
          MAX step            0.0818941444            0.0040000000      NO
          ........................................................
          Max(Bonds)      0.0180      Max(Angles)    2.41
          Max(Dihed)        4.69      Max(Improp)    0.00
          ---------------------------------------------------------------------

The optimization has not yet converged - more geometry cycles are needed


    ---------------------------------------------------------------------------
                         Redundant Internal Coordinates
                            (Angstroem and degrees)

        Definition                    Value    dE/dq     Step     New-Value
    ----------------------------------------------------------------------------
     1. B(C   1,C   0)                1.5255 -0.001601  0.0027    1.5282   
     2. B(O   2,C   1)                1.4343  0.007913 -0.0172    1.4171   
     3. B(C   3,C   1)                1.5216 -0.001185 -0.0002    1.5214   
     4. B(O   4,C   3)                1.2062  0.006502 -0.0078    1.1985   
     5. B(O   5,C   3)                1.3356  0.003926 -0.0061    1.3295   
     6. B(C   6,C   1)                1.5448 -0.006621  0.0128    1.5576   
     7. B(O   7,C   6)                1.4179  0.008055 -0.0180    1.3999   
     8. B(C   8,C   6)                1.5191 -0.002187  0.0021    1.5212   
     9. B(O   9,C   8)                1.2018  0.011615 -0.0135    1.1883   
    10. B(C  10,C   6)                1.5363 -0.003465  0.0067    1.5431   
    11. B(O  11,C  10)                1.4196  0.000255 -0.0002    1.4194   
    12. B(P  12,O  11)                1.5944  0.004964 -0.0054    1.5890   
    13. B(O  13,P  12)                1.4746  0.020284 -0.0142    1.4605   
    14. B(O  14,P  12)                1.5912  0.000371 -0.0006    1.5906   
    15. B(O  15,P  12)                1.5967 -0.004150  0.0041    1.6008   
    16. B(H  16,C   0)                1.0918  0.000596 -0.0022    1.0896   
    17. B(H  17,C   0)                1.0872  0.000700 -0.0028    1.0844   
    18. B(H  18,C   0)                1.0867  0.001057 -0.0035    1.0832   
    19. B(H  19,O   2)                0.9683  0.000275 -0.0024    0.9659   
    20. B(H  20,O   5)                0.9747  0.001404 -0.0036    0.9711   
    21. B(H  21,O   7)                0.9716  0.000508 -0.0022    0.9694   
    22. B(H  22,C   8)                1.0998 -0.001687  0.0029    1.1027   
    23. B(H  23,C  10)                1.0956  0.000416 -0.0011    1.0945   
    24. B(H  24,C  10)                1.0950  0.000578 -0.0014    1.0936   
    25. B(H  25,O  14)                0.9575  0.001976 -0.0059    0.9517   
    26. B(H  26,O  15)                0.9583  0.002273 -0.0064    0.9519   
    27. A(H  16,C   0,H  17)          106.92 -0.002935    1.18    108.09   
    28. A(C   1,C   0,H  16)          109.99  0.002439   -0.60    109.40   
    29. A(H  16,C   0,H  18)          108.05 -0.002037    0.73    108.78   
    30. A(C   1,C   0,H  17)          110.63  0.002350   -0.80    109.83   
    31. A(C   1,C   0,H  18)          111.89  0.001012   -0.41    111.48   
    32. A(H  17,C   0,H  18)          109.20 -0.001125    0.04    109.24   
    33. A(C   0,C   1,C   6)          116.04  0.000070   -0.21    115.83   
    34. A(O   2,C   1,C   3)          107.60 -0.000147    0.21    107.81   
    35. A(C   3,C   1,C   6)          109.82  0.001040   -1.09    108.73   
    36. A(C   0,C   1,C   3)          108.52  0.000102   -0.18    108.34   
    37. A(O   2,C   1,C   6)          105.65  0.000471   -0.08    105.56   
    38. A(C   0,C   1,O   2)          108.89 -0.001590    1.49    110.37   
    39. A(C   1,O   2,H  19)          107.22 -0.002508    0.66    107.88   
    40. A(O   4,C   3,O   5)          122.17 -0.006812    1.45    123.62   
    41. A(C   1,C   3,O   4)          123.86  0.004396   -0.95    122.91   
    42. A(C   1,C   3,O   5)          113.92  0.002427   -0.56    113.36   
    43. A(C   3,O   5,H  20)          106.74 -0.009518    2.41    109.16   
    44. A(O   7,C   6,C  10)          106.69 -0.001252    0.67    107.36   
    45. A(C   1,C   6,C  10)          113.61  0.001896   -0.73    112.88   
    46. A(O   7,C   6,C   8)          109.59  0.001356   -0.55    109.04   
    47. A(C   1,C   6,C   8)          110.89 -0.000954    0.12    111.01   
    48. A(C   1,C   6,O   7)          108.11 -0.000575    0.34    108.46   
    49. A(C   8,C   6,C  10)          107.82 -0.000441    0.14    107.97   
    50. A(C   6,O   7,H  21)          106.04 -0.002555    0.61    106.65   
    51. A(C   6,C   8,O   9)          125.00  0.000537   -0.13    124.87   
    52. A(O   9,C   8,H  22)          120.50 -0.004805    1.22    121.71   
    53. A(C   6,C   8,H  22)          114.42  0.004251   -1.18    113.24   
    54. A(O  11,C  10,H  24)          110.62 -0.000285    0.21    110.83   
    55. A(H  23,C  10,H  24)          107.44 -0.001730    0.86    108.31   
    56. A(C   6,C  10,H  24)          109.42  0.001032   -0.40    109.03   
    57. A(O  11,C  10,H  23)          109.04 -0.001284    0.51    109.55   
    58. A(C   6,C  10,H  23)          108.65  0.002806   -1.06    107.59   
    59. A(C   6,C  10,O  11)          111.55 -0.000536   -0.09    111.46   
    60. A(C  10,O  11,P  12)          118.26  0.000036   -0.03    118.23   
    61. A(O  14,P  12,O  15)          102.80  0.002076   -0.31    102.49   
    62. A(O  13,P  12,O  15)          113.67 -0.001854    0.77    114.44   
    63. A(O  11,P  12,O  15)          105.31 -0.002030    0.19    105.50   
    64. A(O  13,P  12,O  14)          114.28 -0.005428    1.27    115.55   
    65. A(O  11,P  12,O  14)          104.20  0.004725   -1.36    102.84   
    66. A(O  11,P  12,O  13)          115.27  0.003027   -0.71    114.57   
    67. A(P  12,O  14,H  25)          110.32  0.002399   -0.58    109.75   
    68. A(P  12,O  15,H  26)          110.78  0.001761   -0.41    110.37   
    69. D(O   2,C   1,C   0,H  16)     67.77 -0.000219   -0.08     67.70   
    70. D(C   3,C   1,C   0,H  17)   -166.97  0.001441   -1.61   -168.58   
    71. D(O   2,C   1,C   0,H  17)    -50.12  0.000450   -0.66    -50.78   
    72. D(C   6,C   1,C   0,H  16)   -173.25 -0.000752    0.77   -172.48   
    73. D(C   3,C   1,C   0,H  18)     71.03  0.000514   -0.79     70.24   
    74. D(O   2,C   1,C   0,H  18)   -172.12 -0.000478    0.16   -171.96   
    75. D(C   3,C   1,C   0,H  16)    -49.07  0.000773   -1.03    -50.10   
    76. D(C   6,C   1,C   0,H  18)    -53.15 -0.001011    1.01    -52.14   
    77. D(C   6,C   1,C   0,H  17)     68.85 -0.000083    0.19     69.04   
    78. D(H  19,O   2,C   1,C   6)    146.25  0.001963   -4.69    141.56   
    79. D(H  19,O   2,C   1,C   3)     28.97  0.000598   -3.49     25.48   
    80. D(H  19,O   2,C   1,C   0)    -88.46  0.001409   -4.15    -92.61   
    81. D(O   4,C   3,C   1,C   6)   -115.67  0.000814   -3.45   -119.12   
    82. D(O   4,C   3,C   1,C   0)    116.53 -0.000081   -2.23    114.30   
    83. D(O   5,C   3,C   1,C   6)     66.88  0.000738   -2.71     64.17   
    84. D(O   5,C   3,C   1,O   2)   -178.59  0.001749   -3.26   -181.85   
    85. D(O   5,C   3,C   1,C   0)    -60.92 -0.000157   -1.49    -62.42   
    86. D(O   4,C   3,C   1,O   2)     -1.14  0.001825   -4.00     -5.14   
    87. D(H  20,O   5,C   3,O   4)      5.15  0.000057   -0.11      5.04   
    88. D(H  20,O   5,C   3,C   1)   -177.35  0.000447   -0.89   -178.24   
    89. D(C  10,C   6,C   1,C   3)   -170.75 -0.000041   -1.03   -171.78   
    90. D(C  10,C   6,C   1,O   2)     73.48 -0.000625   -0.69     72.79   
    91. D(C   8,C   6,C   1,C   3)    -49.12  0.000030   -1.28    -50.40   
    92. D(C   8,C   6,C   1,O   2)   -164.89 -0.000555   -0.94   -165.83   
    93. D(C   8,C   6,C   1,C   0)     74.38  0.001079   -2.64     71.74   
    94. D(C  10,C   6,C   1,C   0)    -47.25  0.001008   -2.39    -49.64   
    95. D(O   7,C   6,C   1,O   2)    -44.74  0.000175   -1.32    -46.06   
    96. D(O   7,C   6,C   1,C   0)   -165.46  0.001808   -3.02   -168.49   
    97. D(O   7,C   6,C   1,C   3)     71.03  0.000759   -1.66     69.37   
    98. D(H  21,O   7,C   6,C   8)    154.99 -0.000530    1.41    156.40   
    99. D(H  21,O   7,C   6,C   1)     34.02  0.000175    1.37     35.40   
   100. D(H  21,O   7,C   6,C  10)    -88.53 -0.001039    1.67    -86.86   
   101. D(H  22,C   8,C   6,C  10)     59.19  0.000723    0.58     59.76   
   102. D(H  22,C   8,C   6,O   7)    174.95 -0.000287    1.17    176.11   
   103. D(H  22,C   8,C   6,C   1)    -65.78 -0.000727    1.32    -64.46   
   104. D(O   9,C   8,C   6,C  10)   -117.42  0.001212   -2.52   -119.95   
   105. D(O   9,C   8,C   6,O   7)     -1.66  0.000203   -1.93     -3.60   
   106. D(O   9,C   8,C   6,C   1)    117.61 -0.000238   -1.78    115.83   
   107. D(H  24,C  10,C   6,O   7)     65.20 -0.001023    2.91     68.11   
   108. D(H  24,C  10,C   6,C   1)    -53.83 -0.000587    2.46    -51.38   
   109. D(H  23,C  10,C   6,C   8)     65.81 -0.000411    2.49     68.30   
   110. D(H  23,C  10,C   6,O   7)    -51.83 -0.001119    2.71    -49.12   
   111. D(H  23,C  10,C   6,C   1)   -170.87 -0.000683    2.26   -168.61   
   112. D(O  11,C  10,C   6,C   8)    -54.42 -0.000319    2.62    -51.81   
   113. D(O  11,C  10,C   6,O   7)   -172.07 -0.001026    2.84   -169.23   
   114. D(H  24,C  10,C   6,C   8)   -177.16 -0.000315    2.69   -174.47   
   115. D(O  11,C  10,C   6,C   1)     68.90 -0.000591    2.39     71.28   
   116. D(P  12,O  11,C  10,H  24)    -46.28  0.001259   -0.61    -46.90   
   117. D(P  12,O  11,C  10,H  23)     71.67 -0.001803    0.84     72.51   
   118. D(P  12,O  11,C  10,C   6)   -168.33  0.000511   -0.19   -168.52   
   119. D(O  15,P  12,O  11,C  10)    -53.96 -0.001275   -1.02    -54.98   
   120. D(O  14,P  12,O  11,C  10)     53.87  0.002024   -1.79     52.07   
   121. D(O  13,P  12,O  11,C  10)    179.92  0.000660   -1.69    178.23   
   122. D(H  25,O  14,P  12,O  15)    -87.50  0.001670   -1.61    -89.11   
   123. D(H  25,O  14,P  12,O  13)     36.15 -0.002297   -0.17     35.98   
   124. D(H  25,O  14,P  12,O  11)    162.83  0.001576   -1.24    161.59   
   125. D(H  26,O  15,P  12,O  14)    156.30 -0.003326   -0.62    155.69   
   126. D(H  26,O  15,P  12,O  13)     32.25  0.003002   -2.39     29.86   
   127. D(H  26,O  15,P  12,O  11)    -94.85  0.001904   -2.15    -97.00   
    ----------------------------------------------------------------------------

         *************************************************************
         *                GEOMETRY OPTIMIZATION CYCLE   3            *
         *************************************************************
---------------------------------
CARTESIAN COORDINATES (ANGSTROEM)
---------------------------------
  C    -1.120691    0.870858    1.252647
  C    -1.344942    0.513965   -0.216285
  O    -1.211137    1.666442   -1.029983
  C    -2.767836   -0.001879   -0.370927
  O    -3.604706    0.575806   -1.005211
  O    -3.004139   -1.112477    0.320648
  C    -0.364241   -0.537127   -0.815987
  O    -0.528666   -0.554323   -2.206056
  C    -0.649932   -1.926092   -0.265411
  O    -1.020442   -2.851475   -0.912359
  C     1.116084   -0.207511   -0.531308
  O     1.438899   -0.407240    0.836363
  P     2.832086    0.141876    1.367806
  O     3.064795   -0.071073    2.793785
  O     2.817149    1.660420    0.894813
  O     3.940126   -0.507106    0.411966
  H    -1.935977    1.505110    1.599461
  H    -0.194471    1.424710    1.359204
  H    -1.079797   -0.015377    1.874188
  H    -2.088294    2.055886   -1.139032
  H    -3.916575   -1.401805    0.156830
  H    -0.716038    0.357973   -2.474874
  H    -0.474625   -2.009539    0.820053
  H     1.727664   -0.869543   -1.152229
  H     1.315407    0.825203   -0.831036
  H     3.457486    2.158459    1.392394
  H     4.312612   -1.284142    0.816441

----------------------------
CARTESIAN COORDINATES (A.U.)
----------------------------
  NO LB    ZA    FRAG    MASS        X           Y           Z
   0 C   6.0000    0    12.011   -2.117800    1.645683    2.367160
   1 C   6.0000    0    12.011   -2.541573    0.971253   -0.408719
   2 O   8.0000    0    15.999   -2.288718    3.149119   -1.946385
   3 C   6.0000    0    12.011   -5.230452   -0.003551   -0.700950
   4 O   8.0000    0    15.999   -6.811907    1.088116   -1.899573
   5 O   8.0000    0    15.999   -5.676999   -2.102277    0.605936
   6 C   6.0000    0    12.011   -0.688316   -1.015023   -1.541991
   7 O   8.0000    0    15.999   -0.999033   -1.047519   -4.168842
   8 C   6.0000    0    12.011   -1.228194   -3.639786   -0.501553
   9 O   8.0000    0    15.999   -1.928355   -5.388506   -1.724109
  10 C   6.0000    0    12.011    2.109093   -0.392140   -1.004026
[...]
     68      -0.006125   0.002900  -0.003856   0.008546   0.001287   0.001498
     69       0.192203   0.003016   0.002360  -0.002050   0.000032   0.000026
     70      -0.216228  -0.002810  -0.002228   0.001622   0.000226  -0.000025
     71      -0.220253  -0.003035  -0.002364   0.002225  -0.000475  -0.000058
     72       0.093159   0.000631  -0.001095  -0.000690   0.000729   0.000055
     73       0.914482   0.005400  -0.001950  -0.000744   0.002173   0.000250
     74      -0.135438  -0.000983  -0.000168   0.000010  -0.000654  -0.000039
     75       0.001212  -0.000053   0.000017   0.000203   0.000212   0.000111
     76       0.001991   0.000203  -0.000280   0.000218   0.000259   0.000082
     77       0.000029   0.000141  -0.000712  -0.000106   0.000258   0.000160
     78       0.000762   0.000020  -0.000109   0.000195   0.000367   0.000203
     79      -0.001007   0.000139   0.000109  -0.000235  -0.000543  -0.000329
     80       0.000490  -0.000106   0.000184   0.000199   0.000404   0.000232
                 78         79         80    
      0      -0.000036  -0.000033  -0.000019
      1      -0.000001  -0.000010   0.000004
      2       0.000150  -0.000004  -0.000035
      3       0.000070  -0.000005  -0.000016
      4       0.000303   0.000010  -0.000030
      5      -0.000281  -0.000005  -0.000006
      6      -0.002284   0.000019  -0.000045
      7       0.000661  -0.000015   0.000018
      8      -0.000400   0.000007  -0.000025
      9      -0.000172  -0.000016   0.000074
     10      -0.000065  -0.000003   0.000010
     11       0.000093  -0.000005   0.000013
     12       0.000007   0.000006  -0.000024
     13      -0.000031  -0.000003   0.000009
     14       0.000007   0.000004  -0.000015
     15      -0.000307   0.000015  -0.000035
     16      -0.000128   0.000007  -0.000022
     17      -0.000088  -0.000001   0.000003
     18       0.000088  -0.000006   0.000045
     19      -0.001031   0.000012   0.000006
     20       0.002580  -0.000007   0.000045
     21       0.001052   0.000010  -0.000013
     22      -0.057865  -0.000003   0.000019
     23       0.021262   0.000012  -0.000039
     24       0.000199  -0.000006   0.000036
     25      -0.000119  -0.000038   0.000111
     26       0.000279   0.000000  -0.000028
     27       0.000019   0.000003  -0.000011
     28       0.000163   0.000015  -0.000036
     29      -0.000062   0.000003  -0.000012
     30       0.000016  -0.000023   0.000165
     31       0.000069  -0.000004  -0.000081
     32       0.000025  -0.000110   0.000498
     33      -0.000120   0.000161  -0.000615
     34      -0.000035  -0.000135  -0.000232
     35      -0.000161  -0.000029  -0.000177
     36       0.000054  -0.000043   0.000349
     37       0.000050   0.000321   0.000040
     38       0.000039   0.000054   0.000106
     39      -0.000023   0.000083   0.000021
     40      -0.000008  -0.000101  -0.000173
     41      -0.000045  -0.000096   0.000381
     42       0.000005   0.022844   0.027981
     43      -0.000047   0.020653   0.026293
     44       0.000009   0.024252   0.029947
     45      -0.000017  -0.027998   0.022759
     46      -0.000035   0.034406  -0.028033
     47       0.000003  -0.019872   0.015795
     48       0.000779   0.000124   0.000184
     49      -0.000531  -0.000133   0.000112
     50      -0.000755  -0.000051   0.000062
     51      -0.000632   0.000393   0.000280
     52       0.000066   0.000221   0.000418
     53      -0.000271   0.000188   0.000235
     54      -0.000063  -0.000025  -0.000077
     55      -0.000533   0.000071  -0.000432
     56       0.000336  -0.000002   0.000313
     57       0.035548  -0.000292   0.000650
     58      -0.007816   0.000091  -0.000198
     59       0.014093  -0.000104   0.000318
     60       0.005106  -0.000211   0.000409
     61       0.001998  -0.000079   0.000153
     62       0.001319  -0.000022   0.000056
     63      -0.018174  -0.000043   0.000050
     64       0.924220   0.000121  -0.000373
     65      -0.374299  -0.000078   0.000165
     66      -0.001125  -0.000034   0.000046
     67      -0.000359   0.000003  -0.000206
     68      -0.000905   0.000070   0.000397
     69       0.001124  -0.000395   0.001141
     70      -0.001521   0.000514  -0.000609
     71      -0.000664  -0.000164  -0.000941
     72       0.000628   0.000021  -0.000083
     73       0.002513   0.000292   0.001897
     74       0.000604  -0.000019  -0.000698
     75      -0.000237  -0.364625  -0.451625
     76       0.000050  -0.329194  -0.411886
     77      -0.000207  -0.387939  -0.480377
     78      -0.000118   0.444556  -0.358996
     79       0.000291  -0.551550   0.443902
     80      -0.000153   0.320071  -0.256440


-----------
IR SPECTRUM
-----------

 Mode   freq       eps      Int      T**2         TX        TY        TZ
       cm**-1   L/(mol*cm) km/mol    a.u.
----------------------------------------------------------------------------
  6:      4.11   0.000000    0.00  0.000000  ( 0.000000  0.000000  0.000000)
  7:     30.77   0.000465    2.35  0.004720  ( 0.045162 -0.016267  0.049152)
  8:     35.52   0.000170    0.86  0.001492  ( 0.008940 -0.037528  0.002050)
  9:     52.57   0.000647    3.27  0.003840  (-0.052982  0.029165  0.013514)
 10:     83.01   0.000277    1.40  0.001042  (-0.007513  0.000990  0.031378)
 11:     97.08   0.000489    2.47  0.001571  (-0.017308  0.017189  0.031233)
 12:    127.07   0.000576    2.91  0.001414  ( 0.028491  0.023337 -0.007582)
 13:    138.44   0.000104    0.53  0.000235  (-0.010749 -0.007377 -0.008090)
 14:    162.06   0.014818   74.88  0.028533  (-0.008944  0.066690  0.154937)
 15:    177.82   0.001122    5.67  0.001969  (-0.022738 -0.021743  0.031293)
 16:    193.32   0.000611    3.09  0.000987  ( 0.010711  0.025456  0.014978)
 17:    223.32   0.001790    9.04  0.002501  (-0.043853 -0.023380 -0.005576)
 18:    233.58   0.015522   78.44  0.020738  (-0.124669 -0.065559  0.029952)
 19:    240.79   0.000800    4.04  0.001037  (-0.025626 -0.018626 -0.005802)
 20:    259.62   0.000436    2.20  0.000524  ( 0.014303  0.007680 -0.016141)
 21:    278.87   0.005645   28.53  0.006317  ( 0.061042  0.044328  0.025013)
 22:    290.14   0.001975    9.98  0.002125  (-0.023341  0.032984  0.022180)
 23:    322.35   0.001694    8.56  0.001640  (-0.039681  0.001976  0.007827)
 24:    338.25   0.005950   30.07  0.005490  ( 0.001908 -0.039946 -0.062374)
 25:    345.86   0.016493   83.35  0.014881  ( 0.097062 -0.040867 -0.061565)
 26:    356.85   0.006410   32.39  0.005605  (-0.017017 -0.071723  0.013096)
 27:    374.40   0.001196    6.04  0.000997  (-0.029435  0.006960  0.009060)
 28:    382.41   0.024841  125.54  0.020271  ( 0.131268 -0.015157 -0.053015)
 29:    427.54   0.016678   84.28  0.012174  (-0.096614  0.047212  0.024706)
 30:    432.15   0.019133   96.69  0.013816  (-0.039649 -0.099706 -0.047985)
 31:    462.77   0.012609   63.72  0.008503  ( 0.080216  0.027859 -0.035941)
 32:    493.47   0.016633   84.06  0.010518  ( 0.072192  0.069834  0.020735)
 33:    500.63   0.005712   28.87  0.003561  (-0.030491  0.016719 -0.048493)
 34:    520.67   0.000786    3.97  0.000471  (-0.001120 -0.002216 -0.021568)
 35:    553.90   0.001729    8.74  0.000974  ( 0.026892  0.008999 -0.013046)
 36:    610.19   0.023925  120.91  0.012236  ( 0.014085 -0.082678 -0.072122)
 37:    665.48   0.009205   46.52  0.004317  ( 0.064853 -0.005842 -0.008748)
 38:    728.10   0.015256   77.10  0.006539  ( 0.004928 -0.022759 -0.077437)
 39:    745.96   0.011873   60.00  0.004967  (-0.008194 -0.055526  0.042623)
 40:    780.60   0.005751   29.06  0.002299  ( 0.042625  0.006666 -0.020920)
 41:    825.16   0.049830  251.82  0.018845  ( 0.095695 -0.082294 -0.053995)
 42:    845.92   0.005849   29.56  0.002158  (-0.006407 -0.042050 -0.018668)
 43:    847.75   0.053626  271.01  0.019740  (-0.060004 -0.125734 -0.018187)
 44:    877.78   0.060793  307.22  0.021613  (-0.145188  0.018828  0.013361)
 45:    887.70   0.002605   13.16  0.000916  (-0.015304  0.024910 -0.007810)
 46:    901.63   0.006409   32.39  0.002218  (-0.023084 -0.036386  0.019012)
 47:    918.12   0.032790  165.71  0.011145  ( 0.010474  0.074479 -0.074082)
 48:    957.45   0.002531   12.79  0.000825  ( 0.004945 -0.026568  0.009734)
 49:   1046.78   0.005824   29.43  0.001736  ( 0.024374  0.032406  0.009584)
 50:   1061.74   0.005347   27.02  0.001572  ( 0.026372 -0.018702  0.022943)
 51:   1090.42   0.035386  178.83  0.010127  (-0.066270 -0.020239 -0.072978)
 52:   1110.43   0.034999  176.87  0.009836  (-0.011418 -0.043178  0.088550)
 53:   1134.89   0.027383  138.38  0.007529  (-0.008664 -0.056270  0.065483)
 54:   1138.49   0.014344   72.49  0.003932  (-0.006554 -0.062214  0.004278)
 55:   1156.08   0.010097   51.03  0.002726  ( 0.001341  0.045293  0.025929)
 56:   1177.66   0.003406   17.21  0.000903  ( 0.010113  0.027216  0.007714)
 57:   1206.00   0.001875    9.47  0.000485  (-0.003145  0.003508 -0.021514)
 58:   1244.76   0.048599  245.60  0.012184  ( 0.071423  0.077073 -0.033798)
 59:   1271.82   0.009307   47.03  0.002284  ( 0.008083  0.023399  0.040874)
 60:   1296.84   0.080532  406.98  0.019379  (-0.023285  0.041669 -0.130768)
 61:   1321.03   0.009323   47.11  0.002202  ( 0.018050 -0.034928  0.025624)
 62:   1335.68   0.000732    3.70  0.000171  ( 0.010604 -0.001987 -0.007386)
 63:   1354.52   0.010616   53.65  0.002446  (-0.004067  0.012002 -0.047803)
 64:   1392.54   0.002642   13.35  0.000592  ( 0.005160  0.007441  0.022585)
 65:   1456.56   0.001113    5.62  0.000238  ( 0.000284 -0.000022  0.015437)
 66:   1463.59   0.000548    2.77  0.000117  ( 0.002907 -0.002898 -0.009998)
 67:   1480.17   0.000366    1.85  0.000077  (-0.001919 -0.008409 -0.001636)
 68:   1783.24   0.097661  493.54  0.017090  ( 0.072931 -0.071483  0.081618)
 69:   1799.56   0.061816  312.39  0.010720  (-0.031538 -0.094558 -0.027994)
 70:   2826.24   0.013940   70.45  0.001539  (-0.002834  0.000147 -0.039130)
 71:   2940.63   0.001577    7.97  0.000167  ( 0.000185 -0.001700 -0.012822)
 72:   2953.98   0.003564   18.01  0.000376  ( 0.000899 -0.001586  0.019317)
 73:   3027.73   0.004359   22.03  0.000449  ( 0.000042  0.009260  0.019067)
 74:   3068.05   0.000098    0.50  0.000010  ( 0.000154  0.001047  0.002981)
 75:   3072.21   0.001476    7.46  0.000150  (-0.000334  0.000791 -0.012213)
 76:   3346.91   0.027128  137.10  0.002529  ( 0.049416  0.006279  0.006930)
 77:   3413.91   0.012449   62.91  0.001138  ( 0.026325  0.019321  0.008467)
 78:   3434.55   0.008257   41.73  0.000750  ( 0.001131  0.027074 -0.003990)
 79:   3628.33   0.021788  110.11  0.001874  ( 0.004831 -0.042975 -0.001940)
 80:   3634.62   0.026571  134.28  0.002281  (-0.045454 -0.004665 -0.013912)

* The epsilon (eps) is given for a Dirac delta lineshape.
** The dipole moment derivative (T) already includes vibrational overlap.

The first frequency considered to be a vibration is 6
The total number of vibrations considered is 75


--------------------------
THERMOCHEMISTRY AT 298.15K
--------------------------

Temperature         ... 298.15 K
Pressure            ... 1.00 atm
Total Mass          ... 258.12 AMU

Throughout the following assumptions are being made:
  (1) The electronic state is orbitally nondegenerate
  (2) There are no thermally accessible electronically excited states
  (3) Hindered rotations indicated by low frequency modes are not
      treated as such but are treated as vibrations and this may
      cause some error
  (4) All equations used are the standard statistical mechanics
      equations for an ideal gas
  (5) All vibrations are strictly harmonic

freq.       4.11  E(vib)   ...       0.59 
freq.      30.77  E(vib)   ...       0.55 
freq.      35.52  E(vib)   ...       0.54 
freq.      52.57  E(vib)   ...       0.52 
freq.      83.01  E(vib)   ...       0.48 
freq.      97.08  E(vib)   ...       0.46 
freq.     127.07  E(vib)   ...       0.43 
freq.     138.44  E(vib)   ...       0.42 
freq.     162.06  E(vib)   ...       0.39 
freq.     177.82  E(vib)   ...       0.37 
freq.     193.32  E(vib)   ...       0.36 
freq.     223.32  E(vib)   ...       0.33 
freq.     233.58  E(vib)   ...       0.32 
freq.     240.79  E(vib)   ...       0.31 
freq.     259.62  E(vib)   ...       0.30 
freq.     278.87  E(vib)   ...       0.28 
freq.     290.14  E(vib)   ...       0.27 
freq.     322.35  E(vib)   ...       0.25 
freq.     338.25  E(vib)   ...       0.24 
freq.     345.86  E(vib)   ...       0.23 
freq.     356.85  E(vib)   ...       0.22 
freq.     374.40  E(vib)   ...       0.21 
freq.     382.41  E(vib)   ...       0.21 
freq.     427.54  E(vib)   ...       0.18 
freq.     432.15  E(vib)   ...       0.18 
freq.     462.77  E(vib)   ...       0.16 
freq.     493.47  E(vib)   ...       0.14 
freq.     500.63  E(vib)   ...       0.14 
freq.     520.67  E(vib)   ...       0.13 
freq.     553.90  E(vib)   ...       0.12 
freq.     610.19  E(vib)   ...       0.10 
freq.     665.48  E(vib)   ...       0.08 
freq.     728.10  E(vib)   ...       0.06 
freq.     745.96  E(vib)   ...       0.06 
freq.     780.60  E(vib)   ...       0.05 
freq.     825.16  E(vib)   ...       0.04 
freq.     845.92  E(vib)   ...       0.04 
freq.     847.75  E(vib)   ...       0.04 
freq.     877.78  E(vib)   ...       0.04 
freq.     887.70  E(vib)   ...       0.04 
freq.     901.63  E(vib)   ...       0.03 
freq.     918.12  E(vib)   ...       0.03 
freq.     957.45  E(vib)   ...       0.03 
freq.    1046.78  E(vib)   ...       0.02 
freq.    1061.74  E(vib)   ...       0.02 
freq.    1090.42  E(vib)   ...       0.02 
freq.    1110.43  E(vib)   ...       0.02 
freq.    1134.89  E(vib)   ...       0.01 
freq.    1138.49  E(vib)   ...       0.01 
freq.    1156.08  E(vib)   ...       0.01 
freq.    1177.66  E(vib)   ...       0.01 
freq.    1206.00  E(vib)   ...       0.01 
freq.    1244.76  E(vib)   ...       0.01 
freq.    1271.82  E(vib)   ...       0.01 
freq.    1296.84  E(vib)   ...       0.01 
freq.    1321.03  E(vib)   ...       0.01 
freq.    1335.68  E(vib)   ...       0.01 
freq.    1354.52  E(vib)   ...       0.01 
freq.    1392.54  E(vib)   ...       0.00 
freq.    1456.56  E(vib)   ...       0.00 
freq.    1463.59  E(vib)   ...       0.00 
freq.    1480.17  E(vib)   ...       0.00 
freq.    1783.24  E(vib)   ...       0.00 
freq.    1799.56  E(vib)   ...       0.00 
freq.    2826.24  E(vib)   ...       0.00 
freq.    2940.63  E(vib)   ...       0.00 
freq.    2953.98  E(vib)   ...       0.00 
freq.    3027.73  E(vib)   ...       0.00 
freq.    3068.05  E(vib)   ...       0.00 
freq.    3072.21  E(vib)   ...       0.00 
freq.    3346.91  E(vib)   ...       0.00 
freq.    3413.91  E(vib)   ...       0.00 
freq.    3434.55  E(vib)   ...       0.00 
freq.    3628.33  E(vib)   ...       0.00 
freq.    3634.62  E(vib)   ...       0.00 

------------
INNER ENERGY
------------

The inner energy is: U= E(el) + E(ZPE) + E(vib) + E(rot) + E(trans)
    E(el)   - is the total energy from the electronic structure calculation
              = E(kin-el) + E(nuc-el) + E(el-el) + E(nuc-nuc)
    E(ZPE)  - the the zero temperature vibrational energy from the frequency calculation
    E(vib)  - the the finite temperature correction to E(ZPE) due to population
              of excited vibrational states
    E(rot)  - is the rotational thermal energy
    E(trans)- is the translational thermal energy

Summary of contributions to the inner energy U:
Electronic energy                ...    -57.70591897 Eh
Zero point energy                ...      0.18544540 Eh     116.37 kcal/mol
Thermal vibrational correction   ...      0.01618506 Eh      10.16 kcal/mol
Thermal rotational correction    ...      0.00141627 Eh       0.89 kcal/mol
Thermal translational correction ...      0.00141627 Eh       0.89 kcal/mol
-----------------------------------------------------------------------
Total thermal energy                    -57.50145597 Eh


Summary of corrections to the electronic energy:
(perhaps to be used in another calculation)
Total thermal correction                  0.01901761 Eh      11.93 kcal/mol
Non-thermal (ZPE) correction              0.18544540 Eh     116.37 kcal/mol
-----------------------------------------------------------------------
Total correction                          0.20446300 Eh     128.30 kcal/mol


--------
ENTHALPY
--------

The enthalpy is H = U + kB*T
                kB is Boltzmann's constant
Total free energy                 ...    -57.50145597 Eh 
Thermal Enthalpy correction       ...      0.00094421 Eh       0.59 kcal/mol
-----------------------------------------------------------------------
Total Enthalpy                    ...    -57.50051176 Eh


Note: Only C1 symmetry has been detected, increase convergence thresholds 
      if your molecule has a higher symmetry. Symmetry factor of 1.0 is   
      used for the rotational entropy correction. 
 

Note: Rotational entropy computed according to Herzberg 
Infrared and Raman Spectra, Chapter V,1, Van Nostrand Reinhold, 1945 
Point Group:  C1, Symmetry Number:   1  
Rotational constants in cm-1:     0.030753     0.009366     0.008774 

Vibrational entropy computed according to the QRRHO of S. Grimme
Chem.Eur.J. 2012 18 9955


-------
ENTROPY
-------

The entropy contributions are T*S = T*(S(el)+S(vib)+S(rot)+S(trans))
     S(el)   - electronic entropy
     S(vib)  - vibrational entropy
     S(rot)  - rotational entropy
     S(trans)- translational entropy
The entropies will be listed as multiplied by the temperature to get
units of energy

Electronic entropy                ...      0.00000000 Eh      0.00 kcal/mol
Vibrational entropy               ...      0.02965748 Eh     18.61 kcal/mol
Rotational entropy                ...      0.01559530 Eh      9.79 kcal/mol
Translational entropy             ...      0.02021422 Eh     12.68 kcal/mol
-----------------------------------------------------------------------
Final entropy term                ...      0.06546700 Eh     41.08 kcal/mol

In case the symmetry of your molecule has not been determined correctly
or in case you have a reason to use a different symmetry number we print 
out the resulting rotational entropy values for sn=1,12 :
 --------------------------------------------------------
|  sn= 1 | S(rot)=       0.01559530 Eh      9.79 kcal/mol|
|  sn= 2 | S(rot)=       0.01494084 Eh      9.38 kcal/mol|
|  sn= 3 | S(rot)=       0.01455801 Eh      9.14 kcal/mol|
|  sn= 4 | S(rot)=       0.01428639 Eh      8.96 kcal/mol|
|  sn= 5 | S(rot)=       0.01407570 Eh      8.83 kcal/mol|
|  sn= 6 | S(rot)=       0.01390355 Eh      8.72 kcal/mol|
|  sn= 7 | S(rot)=       0.01375801 Eh      8.63 kcal/mol|
|  sn= 8 | S(rot)=       0.01363193 Eh      8.55 kcal/mol|
|  sn= 9 | S(rot)=       0.01352072 Eh      8.48 kcal/mol|
|  sn=10 | S(rot)=       0.01342124 Eh      8.42 kcal/mol|
|  sn=11 | S(rot)=       0.01333125 Eh      8.37 kcal/mol|
|  sn=12 | S(rot)=       0.01324910 Eh      8.31 kcal/mol|
 --------------------------------------------------------


-------------------
GIBBS FREE ENERGY
-------------------

The Gibbs free energy is G = H - T*S

Total enthalpy                    ...    -57.50051176 Eh 
Total entropy correction          ...     -0.06546700 Eh    -41.08 kcal/mol
-----------------------------------------------------------------------
Final Gibbs free energy         ...    -57.56597876 Eh

For completeness - the Gibbs free energy minus the electronic energy
G-E(el)                           ...      0.13994021 Eh     87.81 kcal/mol



Timings for individual modules:

Sum of individual times         ...      396.608 sec (=   6.610 min)
Geometry relaxation             ...        0.659 sec (=   0.011 min)   0.2 %
Numerical frequency calculation ...      395.270 sec (=   6.588 min)  99.7 %
XTB module                      ...        0.679 sec (=   0.011 min)   0.2 %
                             ****ORCA TERMINATED NORMALLY****
TOTAL RUN TIME: 0 days 0 hours 6 minutes 37 seconds 149 msec
