
                                 *****************
                                 * O   R   C   A *
                                 *****************

                                            #,                                       
                                            ###                                      
                                            ####                                     
                                            #####                                    
                                            ######                                   
                                           ########,                                 
                                     ,,################,,,,,                         
                               ,,#################################,,                 
                          ,,##########################################,,             
                       ,#########################################, ''#####,          
                    ,#############################################,,   '####,        
                  ,##################################################,,,,####,       
                ,###########''''           ''''###############################       
              ,#####''   ,,,,##########,,,,          '''####'''          '####       
            ,##' ,,,,###########################,,,                        '##       
           ' ,,###''''                  '''############,,,                           
         ,,##''                                '''############,,,,        ,,,,,,###''
      ,#''                                            '''#######################'''  
     '                                                          ''''####''''         
             ,#######,   #######,   ,#######,      ##                                
            ,#'     '#,  ##    ##  ,#'     '#,    #''#        ######   ,####,        
            ##       ##  ##   ,#'  ##            #'  '#       #        #'  '#        
            ##       ##  #######   ##           ,######,      #####,   #    #        
            '#,     ,#'  ##    ##  '#,     ,#' ,#      #,         ##   #,  ,#        
             '#######'   ##     ##  '#######'  #'      '#     #####' # '####'        



                  #######################################################
                  #                        -***-                        #
                  #          Department of theory and spectroscopy      #
                  #    Directorship and core code : Frank Neese         #
                  #        Max Planck Institute fuer Kohlenforschung    #
                  #                Kaiser Wilhelm Platz 1               #
                  #                 D-45470 Muelheim/Ruhr               #
                  #                      Germany                        #
                  #                                                     #
                  #                  All rights reserved                #
                  #                        -***-                        #
                  #######################################################


                         Program Version 5.0.3 -  RELEASE  -


 With contributions from (in alphabetic order):
   Daniel Aravena         : Magnetic Suceptibility
   Michael Atanasov       : Ab Initio Ligand Field Theory (pilot matlab implementation)
   Alexander A. Auer      : GIAO ZORA, VPT2 properties, NMR spectrum
   Ute Becker             : Parallelization
   Giovanni Bistoni       : ED, misc. LED, open-shell LED, HFLD
   Martin Brehm           : Molecular dynamics
   Dmytro Bykov           : SCF Hessian
   Vijay G. Chilkuri      : MRCI spin determinant printing, contributions to CSF-ICE
   Dipayan Datta          : RHF DLPNO-CCSD density
   Achintya Kumar Dutta   : EOM-CC, STEOM-CC
   Dmitry Ganyushin       : Spin-Orbit,Spin-Spin,Magnetic field MRCI
   Miquel Garcia          : C-PCM and meta-GGA Hessian, CC/C-PCM, Gaussian charge scheme
   Yang Guo               : DLPNO-NEVPT2, F12-NEVPT2, CIM, IAO-localization
   Andreas Hansen         : Spin unrestricted coupled pair/coupled cluster methods
   Benjamin Helmich-Paris : MC-RPA, TRAH-SCF, COSX integrals
   Lee Huntington         : MR-EOM, pCC
   Robert Izsak           : Overlap fitted RIJCOSX, COSX-SCS-MP3, EOM
   Marcus Kettner         : VPT2
   Christian Kollmar      : KDIIS, OOCD, Brueckner-CCSD(T), CCSD density, CASPT2, CASPT2-K
   Simone Kossmann        : Meta GGA functionals, TD-DFT gradient, OOMP2, MP2 Hessian
   Martin Krupicka        : Initial AUTO-CI
   Lucas Lang             : DCDCAS
   Marvin Lechner         : AUTO-CI (C++ implementation), FIC-MRCC
   Dagmar Lenk            : GEPOL surface, SMD
   Dimitrios Liakos       : Extrapolation schemes; Compound Job, initial MDCI parallelization
   Dimitrios Manganas     : Further ROCIS development; embedding schemes
   Dimitrios Pantazis     : SARC Basis sets
   Anastasios Papadopoulos: AUTO-CI, single reference methods and gradients
   Taras Petrenko         : DFT Hessian,TD-DFT gradient, ASA, ECA, R-Raman, ABS, FL, XAS/XES, NRVS
   Peter Pinski           : DLPNO-MP2, DLPNO-MP2 Gradient
   Christoph Reimann      : Effective Core Potentials
   Marius Retegan         : Local ZFS, SOC
   Christoph Riplinger    : Optimizer, TS searches, QM/MM, DLPNO-CCSD(T), (RO)-DLPNO pert. Triples
   Tobias Risthaus        : Range-separated hybrids, TD-DFT gradient, RPA, STAB
   Michael Roemelt        : Original ROCIS implementation
   Masaaki Saitow         : Open-shell DLPNO-CCSD energy and density
   Barbara Sandhoefer     : DKH picture change effects
   Avijit Sen             : IP-ROCIS
   Kantharuban Sivalingam : CASSCF convergence, NEVPT2, FIC-MRCI
   Bernardo de Souza      : ESD, SOC TD-DFT
   Georgi Stoychev        : AutoAux, RI-MP2 NMR, DLPNO-MP2 response
   Willem Van den Heuvel  : Paramagnetic NMR
   Boris Wezisla          : Elementary symmetry handling
   Frank Wennmohs         : Technical directorship


 We gratefully acknowledge several colleagues who have allowed us to
 interface, adapt or use parts of their codes:
   Stefan Grimme, W. Hujo, H. Kruse, P. Pracht,  : VdW corrections, initial TS optimization,
                  C. Bannwarth, S. Ehlert          DFT functionals, gCP, sTDA/sTD-DF
   Ed Valeev, F. Pavosevic, A. Kumar             : LibInt (2-el integral package), F12 methods
   Garnet Chan, S. Sharma, J. Yang, R. Olivares  : DMRG
   Ulf Ekstrom                                   : XCFun DFT Library
   Mihaly Kallay                                 : mrcc  (arbitrary order and MRCC methods)
   Jiri Pittner, Ondrej Demel                    : Mk-CCSD
   Frank Weinhold                                : gennbo (NPA and NBO analysis)
   Christopher J. Cramer and Donald G. Truhlar   : smd solvation model
   Lars Goerigk                                  : TD-DFT with DH, B97 family of functionals
   V. Asgeirsson, H. Jonsson                     : NEB implementation
   FAccTs GmbH                                   : IRC, NEB, NEB-TS, DLPNO-Multilevel, CI-OPT
                                                   MM, QMMM, 2- and 3-layer-ONIOM, Crystal-QMMM,
                                                   LR-CPCM, SF, NACMEs, symmetry and pop. for TD-DFT,
                                                   nearIR, NL-DFT gradient (VV10), updates on ESD,
                                                   ML-optimized integration grids
   S Lehtola, MJT Oliveira, MAL Marques          : LibXC Library
   Liviu Ungur et al                             : ANISO software


 Your calculation uses the libint2 library for the computation of 2-el integrals
 For citations please refer to: http://libint.valeyev.net

 Your ORCA version has been built with support for libXC version: 5.1.0
 For citations please refer to: https://tddft.org/programs/libxc/

 This ORCA versions uses:
   CBLAS   interface :  Fast vector & matrix operations
   LAPACKE interface :  Fast linear algebra routines
   SCALAPACK package :  Parallel linear algebra routines
   Shared memory     :  Shared parallel matrices
   BLAS/LAPACK       :  OpenBLAS 0.3.15  USE64BITINT DYNAMIC_ARCH NO_AFFINITY Haswell SINGLE_THREADED
        Core in use  :  Haswell
   Copyright (c) 2011-2014, The OpenBLAS Project


Your calculation utilizes the semiempirical GFN2-xTB method
Please cite in your paper:
C. Bannwarth, Ehlert S., S. Grimme,  J. Chem. Theory Comput., 15, (2019), 1652.
   

================================================================================

================================================================================
                                        WARNINGS
                       Please study these warnings very carefully!
================================================================================


WARNING: Geometry Optimization
  ===> : Switching off AutoStart
         For restart on a previous wavefunction, please use MOREAD

WARNING: Found dipole moment calculation with XTB calculation
  ===> : Switching off dipole moment calculation


WARNING: TRAH-SCF for XTB is not implemented!
  ===> : Turning TRAH off!

================================================================================
                                       INPUT FILE
================================================================================
NAME = /tmp/36.inp
|  1> ! XTB2 opt numfreq
|  2> * XYZ 0 1
|  3> C -2.1093 1.4791 -0.5073
|  4> C -2.3552 0.2800 0.3670
|  5> O -3.4031 0.1780 1.0127
|  6> C -1.2785 -0.8325 0.4340
|  7> O -1.0027 -1.3382 -0.8594
|  8> O -1.8050 -1.9660 1.1460
|  9> C -0.0023 -0.4159 1.2172
| 10> O 0.8093 -1.6029 1.4115
| 11> C -0.4210 0.0585 2.6033
| 12> O -0.4528 1.2403 2.9368
| 13> C 0.8967 0.6389 0.5601
| 14> O 1.0362 0.3985 -0.8353
| 15> P 2.5182 0.3190 -1.4359
| 16> O 3.4701 1.3898 -1.0412
| 17> O 2.2552 0.2315 -3.0064
| 18> O 2.9923 -1.1634 -1.1047
| 19> H -1.6186 2.2674 0.0678
| 20> H -1.5087 1.2109 -1.3797
| 21> H -3.0715 1.8533 -0.8749
| 22> H -0.0388 -1.2781 -1.0057
| 23> H -2.7650 -1.9483 0.9588
| 24> H 0.1779 -2.3551 1.4582
| 25> H -0.7540 -0.7301 3.3000
| 26> H 1.8831 0.6327 1.0376
| 27> H 0.4953 1.6495 0.6712
| 28> H 2.1367 1.1128 -3.4033
| 29> H 3.9157 -1.3094 -1.3760
| 30> *
| 31> 
| 32>                          ****END OF INPUT****
================================================================================

                       *****************************
                       * Geometry Optimization Run *
                       *****************************

Geometry optimization settings:
Update method            Update   .... BFGS
Choice of coordinates    CoordSys .... Z-matrix Internals
Initial Hessian          InHess   .... Almoef's Model

Convergence Tolerances:
Energy Change            TolE     ....  5.0000e-06 Eh
Max. Gradient            TolMAXG  ....  3.0000e-04 Eh/bohr
RMS Gradient             TolRMSG  ....  1.0000e-04 Eh/bohr
Max. Displacement        TolMAXD  ....  4.0000e-03 bohr
RMS Displacement         TolRMSD  ....  2.0000e-03 bohr
Strict Convergence                ....  False
------------------------------------------------------------------------------
                        ORCA OPTIMIZATION COORDINATE SETUP
------------------------------------------------------------------------------

The optimization will be done in new redundant internal coordinates
Making redundant internal coordinates   ...  (new redundants) done
Evaluating the initial hessian          ...  (Almloef) done
Evaluating the coordinates              ...  done
Calculating the B-matrix                .... done
Calculating the G-matrix                .... done
Diagonalizing the G-matrix              .... done
Small eigenvalue found = 8.483e-03
Small eigenvalue found = 1.327e-02
Small eigenvalue found = 1.894e-02
The first mode is                       ....   50
The number of degrees of freedom        ....   75

    -----------------------------------------------------------------
                    Redundant Internal Coordinates


    -----------------------------------------------------------------
         Definition                    Initial Value    Approx d2E/dq
    -----------------------------------------------------------------
      1. B(C   1,C   0)                  1.5042         0.410669   
      2. B(O   2,C   1)                  1.2351         0.988639   
      3. B(C   3,C   1)                  1.5497         0.347553   
      4. B(O   4,C   3)                  1.4159         0.508868   
      5. B(O   5,C   3)                  1.4384         0.468458   
      6. B(C   6,C   3)                  1.5542         0.341754   
      7. B(O   7,C   6)                  1.4510         0.447245   
      8. B(C   8,C   6)                  1.5237         0.382332   
      9. B(O   9,C   8)                  1.2284         1.013330   
     10. B(C  10,C   6)                  1.5338         0.368377   
     11. B(O  11,C  10)                  1.4228         0.496051   
     12. B(P  12,O  11)                  1.6011         0.866265   
     13. B(O  13,P  12)                  1.4861         1.321407   
     14. B(O  14,P  12)                  1.5948         0.886482   
     15. B(O  15,P  12)                  1.5912         0.898130   
     16. B(H  16,C   0)                  1.0922         0.357176   
     17. B(H  17,C   0)                  1.0926         0.356702   
     18. B(H  18,C   0)                  1.0959         0.352386   
     19. B(H  19,O   4)                  0.9768         0.488854   
     20. B(H  20,O   5)                  0.9782         0.486254   
     21. B(H  21,O   7)                  0.9832         0.477504   
     22. B(H  22,C   8)                  1.1037         0.342416   
     23. B(H  23,C  10)                  1.0959         0.352360   
     24. B(H  24,C  10)                  1.0931         0.356076   
     25. B(H  25,O  14)                  0.9738         0.494277   
     26. B(H  26,O  15)                  0.9734         0.494906   
     27. A(C   1,C   0,H  18)          108.8824         0.328240   
     28. A(C   1,C   0,H  16)          110.0439         0.328972   
     29. A(H  17,C   0,H  18)          107.3752         0.289422   
     30. A(C   1,C   0,H  17)          110.9945         0.328900   
     31. A(H  16,C   0,H  18)          108.9436         0.289482   
     32. A(H  16,C   0,H  17)          110.5261         0.290035   
     33. A(O   2,C   1,C   3)          120.5047         0.422646   
     34. A(C   0,C   1,C   3)          118.9356         0.364750   
     35. A(C   0,C   1,O   2)          120.5571         0.435488   
     36. A(C   1,C   3,C   6)          113.5699         0.353520   
     37. A(O   4,C   3,O   5)          104.0060         0.393620   
     38. A(C   1,C   3,O   4)          110.6254         0.376080   
     39. A(C   1,C   3,O   5)          109.4395         0.370753   
     40. A(O   5,C   3,C   6)          105.2092         0.369682   
     41. A(O   4,C   3,C   6)          113.3356         0.374988   
     42. A(C   3,O   4,H  19)          107.8826         0.354098   
     43. A(C   3,O   5,H  20)          104.4908         0.348865   
     44. A(O   7,C   6,C  10)          106.9838         0.371510   
     45. A(C   3,C   6,C  10)          116.7258         0.357027   
     46. A(O   7,C   6,C   8)          106.6537         0.373898   
     47. A(C   3,C   6,C   8)          108.4350         0.359292   
     48. A(C   3,C   6,O   7)          107.9076         0.366754   
     49. A(C   8,C   6,C  10)          109.6742         0.363921   
     50. A(C   6,O   7,H  21)          105.8440         0.345099   
     51. A(C   6,C   8,O   9)          123.6172         0.431835   
     52. A(O   9,C   8,H  22)          120.5456         0.378206   
     53. A(C   6,C   8,H  22)          115.7651         0.322875   
     54. A(O  11,C  10,H  24)          106.9719         0.337220   
     55. A(H  23,C  10,H  24)          106.9462         0.289339   
     56. A(C   6,C  10,H  24)          112.1502         0.322978   
     57. A(O  11,C  10,H  23)          109.7618         0.336631   
     58. A(C   6,C  10,H  23)          109.6940         0.322423   
     59. A(C   6,C  10,O  11)          111.1879         0.378211   
     60. A(C  10,O  11,P  12)          117.8427         0.467209   
     61. A(O  14,P  12,O  15)          101.7122         0.561504   
     62. A(O  13,P  12,O  15)          115.1594         0.606184   
     63. A(O  11,P  12,O  15)          104.1211         0.559043   
     64. A(O  13,P  12,O  14)          113.9988         0.604658   
     65. A(O  11,P  12,O  14)          102.6792         0.557656   
     66. A(O  11,P  12,O  13)          117.2255         0.601972   
     67. A(P  12,O  14,H  25)          111.8263         0.416420   
     68. A(P  12,O  15,H  26)          111.3675         0.417484   
     69. D(C   3,C   1,C   0,H  18)    149.4464         0.012489   
     70. D(C   3,C   1,C   0,H  17)     31.4568         0.012489   
     71. D(O   2,C   1,C   0,H  17)   -147.9497         0.012489   
     72. D(O   2,C   1,C   0,H  16)     89.3811         0.012489   
     73. D(C   3,C   1,C   0,H  16)    -91.2124         0.012489   
     74. D(O   2,C   1,C   0,H  18)    -29.9600         0.012489   
     75. D(C   6,C   3,C   1,C   0)     71.9550         0.009139   
     76. D(O   4,C   3,C   1,C   0)    -56.7984         0.009139   
     77. D(C   6,C   3,C   1,O   2)   -108.6382         0.009139   
     78. D(O   5,C   3,C   1,O   2)      8.5876         0.009139   
     79. D(O   4,C   3,C   1,O   2)    122.6084         0.009139   
     80. D(O   5,C   3,C   1,C   0)   -170.8192         0.009139   
     81. D(H  19,O   4,C   3,C   6)     -2.6181         0.020496   
     82. D(H  19,O   4,C   3,O   5)   -116.3264         0.020496   
     83. D(H  19,O   4,C   3,C   1)    126.2616         0.020496   
     84. D(H  20,O   5,C   3,C   6)    152.9042         0.017296   
     85. D(H  20,O   5,C   3,O   4)    -87.6970         0.017296   
     86. D(H  20,O   5,C   3,C   1)     30.5343         0.017296   
     87. D(C  10,C   6,C   3,O   4)     57.7151         0.009448   
     88. D(C  10,C   6,C   3,C   1)    -69.6408         0.009448   
     89. D(C   8,C   6,C   3,O   5)    -64.8894         0.009448   
     90. D(C   8,C   6,C   3,O   4)   -177.8711         0.009448   
     91. D(C   8,C   6,C   3,C   1)     54.7731         0.009448   
     92. D(O   7,C   6,C   3,O   4)    -62.7089         0.009448   
     93. D(O   7,C   6,C   3,O   5)     50.2728         0.009448   
     94. D(C  10,C   6,C   3,O   5)    170.6967         0.009448   
     95. D(O   7,C   6,C   3,C   1)    169.9353         0.009448   
     96. D(H  21,O   7,C   6,C  10)   -156.4057         0.015752   
     97. D(H  21,O   7,C   6,C   8)     86.2847         0.015752   
     98. D(H  21,O   7,C   6,C   3)    -30.0453         0.015752   
     99. D(O   9,C   8,C   6,C   3)   -104.5414         0.010900   
    100. D(H  22,C   8,C   6,C  10)   -159.1128         0.010900   
    101. D(H  22,C   8,C   6,O   7)    -43.5978         0.010900   
    102. D(H  22,C   8,C   6,C   3)     72.3796         0.010900   
    103. D(O   9,C   8,C   6,C  10)     23.9662         0.010900   
    104. D(O   9,C   8,C   6,O   7)    139.4811         0.010900   
    105. D(H  24,C  10,C   6,C   8)    -45.7859         0.010854   
    106. D(H  24,C  10,C   6,O   7)   -161.0908         0.010854   
    107. D(H  24,C  10,C   6,C   3)     77.9958         0.010854   
    108. D(H  23,C  10,C   6,C   8)     72.8968         0.010854   
    109. D(H  23,C  10,C   6,O   7)    -42.4081         0.010854   
    110. D(H  23,C  10,C   6,C   3)   -163.3215         0.010854   
    111. D(O  11,C  10,C   6,C   8)   -165.5089         0.010854   
    112. D(O  11,C  10,C   6,O   7)     79.1862         0.010854   
    113. D(O  11,C  10,C   6,C   3)    -41.7273         0.010854   
    114. D(P  12,O  11,C  10,H  24)    109.8826         0.019444   
    115. D(P  12,O  11,C  10,H  23)     -5.8050         0.019444   
    116. D(P  12,O  11,C  10,C   6)   -127.3597         0.019444   
    117. D(O  15,P  12,O  11,C  10)     81.1816         0.012994   
    118. D(O  14,P  12,O  11,C  10)   -173.0856         0.012994   
    119. D(O  13,P  12,O  11,C  10)    -47.3127         0.012994   
    120. D(H  25,O  14,P  12,O  15)   -167.8877         0.013578   
    121. D(H  25,O  14,P  12,O  13)    -43.3076         0.013578   
    122. D(H  25,O  14,P  12,O  11)     84.5328         0.013578   
    123. D(H  26,O  15,P  12,O  14)     77.3166         0.013922   
    124. D(H  26,O  15,P  12,O  13)    -46.4821         0.013922   
    125. D(H  26,O  15,P  12,O  11)   -176.2262         0.013922   
    -----------------------------------------------------------------

Number of atoms                         .... 27
Number of degrees of freedom            .... 125

         *************************************************************
         *                GEOMETRY OPTIMIZATION CYCLE   1            *
         *************************************************************
---------------------------------
CARTESIAN COORDINATES (ANGSTROEM)
---------------------------------
  C    -2.109300    1.479100   -0.507300
  C    -2.355200    0.280000    0.367000
  O    -3.403100    0.178000    1.012700
  C    -1.278500   -0.832500    0.434000
  O    -1.002700   -1.338200   -0.859400
  O    -1.805000   -1.966000    1.146000
  C    -0.002300   -0.415900    1.217200
  O     0.809300   -1.602900    1.411500
  C    -0.421000    0.058500    2.603300
  O    -0.452800    1.240300    2.936800
  C     0.896700    0.638900    0.560100
  O     1.036200    0.398500   -0.835300
  P     2.518200    0.319000   -1.435900
  O     3.470100    1.389800   -1.041200
  O     2.255200    0.231500   -3.006400
  O     2.992300   -1.163400   -1.104700
  H    -1.618600    2.267400    0.067800
  H    -1.508700    1.210900   -1.379700
  H    -3.071500    1.853300   -0.874900
  H    -0.038800   -1.278100   -1.005700
  H    -2.765000   -1.948300    0.958800
  H     0.177900   -2.355100    1.458200
  H    -0.754000   -0.730100    3.300000
  H     1.883100    0.632700    1.037600
  H     0.495300    1.649500    0.671200
  H     2.136700    1.112800   -3.403300
  H     3.915700   -1.309400   -1.376000

----------------------------
CARTESIAN COORDINATES (A.U.)
----------------------------
  NO LB    ZA    FRAG    MASS        X           Y           Z
   0 C   6.0000    0    12.011   -3.985999    2.795094   -0.958658
   1 C   6.0000    0    12.011   -4.450683    0.529123    0.693529
   2 O   8.0000    0    15.999   -6.430927    0.336371    1.913726
   3 C   6.0000    0    12.011   -2.416015   -1.573197    0.820141
   4 O   8.0000    0    15.999   -1.894828   -2.528832   -1.624031
   5 O   8.0000    0    15.999   -3.410956   -3.715202    2.165626
   6 C   6.0000    0    12.011   -0.004346   -0.785937    2.300175
   7 O   8.0000    0    15.999    1.529355   -3.029042    2.667348
   8 C   6.0000    0    12.011   -0.795575    0.110549    4.919524
   9 O   8.0000    0    15.999   -0.855668    2.343827    5.549748
  10 C   6.0000    0    12.011    1.694517    1.207346    1.058436
  11 O   8.0000    0    15.999    1.958134    0.753056   -1.578488
  12 P  15.0000    0    30.974    4.758708    0.602823   -2.713458
  13 O   8.0000    0    15.999    6.557539    2.626341   -1.967583
  14 O   8.0000    0    15.999    4.261710    0.437472   -5.681273
  15 O   8.0000    0    15.999    5.654628   -2.198507   -2.087580
  16 H   1.0000    0     1.008   -3.058711    4.284765    0.128123
  17 H   1.0000    0     1.008   -2.851030    2.288269   -2.607255
  18 H   1.0000    0     1.008   -5.804294    3.502229   -1.653321
  19 H   1.0000    0     1.008   -0.073321   -2.415259   -1.900498
  20 H   1.0000    0     1.008   -5.225093   -3.681753    1.811869
  21 H   1.0000    0     1.008    0.336182   -4.450494    2.755599
  22 H   1.0000    0     1.008   -1.424854   -1.379689    6.236096
  23 H   1.0000    0     1.008    3.558543    1.195630    1.960780
  24 H   1.0000    0     1.008    0.935981    3.117103    1.268384
  25 H   1.0000    0     1.008    4.037778    2.102887   -6.431305
  26 H   1.0000    0     1.008    7.399601   -2.474407   -2.600263

      -----------------------------------------------------------      
     |                   =====================                   |     
     |                           x T B                           |     
     |                   =====================                   |     
     |                         S. Grimme                         |     
     |          Mulliken Center for Theoretical Chemistry        |     
     |                    University of Bonn                     |     
      -----------------------------------------------------------      

   * xtb version 6.5.1 (579679a) compiled by 'ehlert@majestix' on 2022-07-11

   xtb is free software: you can redistribute it and/or modify it under
   the terms of the GNU Lesser General Public License as published by
   the Free Software Foundation, either version 3 of the License, or
   (at your option) any later version.
   
   xtb is distributed in the hope that it will be useful,
   but WITHOUT ANY WARRANTY; without even the implied warranty of
   MERCHANTABILITY or FITNESS FOR A PARTICULAR PURPOSE.  See the
   GNU Lesser General Public License for more details.
   
   Cite this work as:
   * C. Bannwarth, E. Caldeweyher, S. Ehlert, A. Hansen, P. Pracht,
     J. Seibert, S. Spicher, S. Grimme, WIREs Comput. Mol. Sci., 2020, 11,
     e01493. DOI: 10.1002/wcms.1493
   
   for GFN2-xTB:
   * C. Bannwarth, S. Ehlert and S. Grimme., J. Chem. Theory Comput., 2019,
     15, 1652-1671. DOI: 10.1021/acs.jctc.8b01176
   for GFN1-xTB:
   * S. Grimme, C. Bannwarth, P. Shushkov, J. Chem. Theory Comput., 2017,
     13, 1989-2009. DOI: 10.1021/acs.jctc.7b00118
   for GFN0-xTB:
   * P. Pracht, E. Caldeweyher, S. Ehlert, S. Grimme, ChemRxiv, 2019, preprint.
     DOI: 10.26434/chemrxiv.8326202.v1
   for GFN-FF:
   * S. Spicher and S. Grimme, Angew. Chem. Int. Ed., 2020, 59, 15665-15673.
     DOI: 10.1002/anie.202004239
   
   for ALPB and GBSA implicit solvation:
   * S. Ehlert, M. Stahn, S. Spicher, S. Grimme, J. Chem. Theory Comput.,
     2021, 17, 4250-4261. DOI: 10.1021/acs.jctc.1c00471
   
   for DFT-D4:
   * E. Caldeweyher, C. Bannwarth and S. Grimme, J. Chem. Phys., 2017,
     147, 034112. DOI: 10.1063/1.4993215
   * E. Caldeweyher, S. Ehlert, A. Hansen, H. Neugebauer, S. Spicher,
     C. Bannwarth and S. Grimme, J. Chem. Phys., 2019, 150, 154122.
     DOI: 10.1063/1.5090222
   * E. Caldeweyher, J.-M. Mewes, S. Ehlert and S. Grimme, Phys. Chem. Chem. Phys.
     2020, 22, 8499-8512. DOI: 10.1039/D0CP00502A
   
   for sTDA-xTB:
   * S. Grimme and C. Bannwarth, J. Chem. Phys., 2016, 145, 054103.
     DOI: 10.1063/1.4959605
   
   in the mass-spec context:
   * V. Asgeirsson, C. Bauer and S. Grimme, Chem. Sci., 2017, 8, 4879.
     DOI: 10.1039/c7sc00601b
   * J. Koopman and S. Grimme, ACS Omega 2019, 4, 12, 15120-15133.
     DOI: 10.1021/acsomega.9b02011
   
   for metadynamics refer to:
   * S. Grimme, J. Chem. Theory Comput., 2019, 155, 2847-2862
     DOI: 10.1021/acs.jctc.9b00143
   
   for SPH calculations refer to:
   * S. Spicher and S. Grimme, J. Chem. Theory Comput., 2021, 17, 1701-1714
     DOI: 10.1021/acs.jctc.0c01306
   
   with help from (in alphabetical order)
   P. Atkinson, C. Bannwarth, F. Bohle, G. Brandenburg, E. Caldeweyher
   M. Checinski, S. Dohm, S. Ehlert, S. Ehrlich, I. Gerasimov, C. Hölzer
   A. Katbashev, J. Koopman, C. Lavigne, S. Lehtola, F. März, M. Müller,
   F. Musil, H. Neugebauer, J. Pisarek, C. Plett, P. Pracht, F. Pultar,
   J. Seibert, P. Shushkov, S. Spicher, M. Stahn, M. Steiner, T. Strunk,
   J. Stückrath, T. Rose, and J. Unsleber
   
 * started run on 2023/12/07 at 00:43:54.663     

           -------------------------------------------------
          |                Calculation Setup                |
           -------------------------------------------------

          program call               : otool_xtb /tmp/36_XTB.xyz --grad -c 0 -u 0 -P 1 --namespace /tmp/36 --input /tmp/36_XTB.input.tmp --acc 1.000000
          calculation namespace      : /tmp/36
          coordinate file            : /tmp/36_XTB.xyz
          omp threads                :                     1

   ID    Z sym.   atoms
    1    6 C      1, 2, 4, 7, 9, 11
    2    8 O      3, 5, 6, 8, 10, 12, 14-16
    3   15 P      13
    4    1 H      17-27

           -------------------------------------------------
          |                 G F N 2 - x T B                 |
           -------------------------------------------------

        Reference                      10.1021/acs.jctc.8b01176
      * Hamiltonian:
        H0-scaling (s, p, d)           1.850000    2.230000    2.230000
        zeta-weighting                 0.500000
      * Dispersion:
        s8                             2.700000
        a1                             0.520000
        a2                             5.000000
        s9                             5.000000
      * Repulsion:
        kExp                           1.500000    1.000000
        rExp                           1.000000
      * Coulomb:
        alpha                          2.000000
        third order                    shell-resolved
        anisotropic                    true
        a3                             3.000000
        a5                             4.000000
        cn-shift                       1.200000
        cn-exp                         4.000000
        max-rad                        5.000000


          ...................................................
          :                      SETUP                      :
          :.................................................:
          :  # basis functions                  81          :
          :  # atomic orbitals                  80          :
          :  # shells                           44          :
          :  # electrons                        94          :
          :  max. iterations                   250          :
          :  Hamiltonian                  GFN2-xTB          :
          :  restarted?                      false          :
          :  GBSA solvation                  false          :
          :  PC potential                    false          :
          :  electronic temp.          300.0000000     K    :
          :  accuracy                    1.0000000          :
          :  -> integral cutoff          0.2500000E+02      :
          :  -> integral neglect         0.1000000E-07      :
          :  -> SCF convergence          0.1000000E-05 Eh   :
          :  -> wf. convergence          0.1000000E-03 e    :
          :  Broyden damping             0.4000000          :
          ...................................................

 iter      E             dE          RMSdq      gap      omega  full diag
   1    -57.9304189 -0.579304E+02  0.685E+00    3.81       0.0  T
   2    -58.0174691 -0.870502E-01  0.382E+00    3.02       1.0  T
   3    -58.0110649  0.640416E-02  0.181E+00    3.42       1.0  T
   4    -58.0448984 -0.338335E-01  0.560E-01    3.10       1.0  T
   5    -58.0460020 -0.110365E-02  0.223E-01    3.19       1.0  T
   6    -58.0461689 -0.166818E-03  0.772E-02    3.16       1.0  T
   7    -58.0461831 -0.142744E-04  0.310E-02    3.16       1.0  T
   8    -58.0461878 -0.467773E-05  0.131E-02    3.17       1.5  T
   9    -58.0461882 -0.415372E-06  0.677E-03    3.16       2.8  T
  10    -58.0461886 -0.349711E-06  0.199E-03    3.16       9.7  T
  11    -58.0461886 -0.174483E-07  0.971E-04    3.16      19.8  T
  12    -58.0461886 -0.712771E-08  0.338E-04    3.16      57.0  T

   *** convergence criteria satisfied after 12 iterations ***

         #    Occupation            Energy/Eh            Energy/eV
      -------------------------------------------------------------
         1        2.0000           -0.7648827             -20.8135
       ...           ...                  ...                  ...
        41        2.0000           -0.4756064             -12.9419
        42        2.0000           -0.4703730             -12.7995
        43        2.0000           -0.4611568             -12.5487
        44        2.0000           -0.4511123             -12.2754
        45        2.0000           -0.4492228             -12.2240
        46        2.0000           -0.4297556             -11.6942
        47        2.0000           -0.4272739             -11.6267 (HOMO)
        48                         -0.3109682              -8.4619 (LUMO)
        49                         -0.3004164              -8.1747
        50                         -0.1028296              -2.7981
        51                         -0.0727563              -1.9798
        52                         -0.0413015              -1.1239
       ...                                ...                  ...
        80                          1.1955184              32.5317
      -------------------------------------------------------------
                  HL-Gap            0.1163058 Eh            3.1648 eV
             Fermi-level           -0.3691211 Eh          -10.0443 eV

 SCC (total)                   0 d,  0 h,  0 min,  0.034 sec
 SCC setup                      ...        0 min,  0.000 sec (  0.550%)
 Dispersion                     ...        0 min,  0.000 sec (  0.600%)
 classical contributions        ...        0 min,  0.000 sec (  0.130%)
 integral evaluation            ...        0 min,  0.005 sec ( 15.323%)
 iterations                     ...        0 min,  0.013 sec ( 39.542%)
 molecular gradient             ...        0 min,  0.015 sec ( 43.377%)
 printout                       ...        0 min,  0.000 sec (  0.432%)

         :::::::::::::::::::::::::::::::::::::::::::::::::::::
         ::                     SUMMARY                     ::
         :::::::::::::::::::::::::::::::::::::::::::::::::::::
         :: total energy             -57.671242819955 Eh    ::
         :: gradient norm              0.120704957877 Eh/a0 ::
         :: HOMO-LUMO gap              3.164840778519 eV    ::
         ::.................................................::
         :: SCC energy               -58.046188600060 Eh    ::
         :: -> isotropic ES            0.224009938991 Eh    ::
         :: -> anisotropic ES         -0.007716359430 Eh    ::
         :: -> anisotropic XC         -0.001915516590 Eh    ::
         :: -> dispersion             -0.026916015071 Eh    ::
         :: repulsion energy           0.374581822541 Eh    ::
         :: add. restraining           0.000000000000 Eh    ::
         :: total charge              -0.000000000000 e     ::
         :::::::::::::::::::::::::::::::::::::::::::::::::::::


Property printout bound to 'properties.out'

           -------------------------------------------------
          | TOTAL ENERGY              -57.671242819955 Eh   |
          | GRADIENT NORM               0.120704957877 Eh/α |
          | HOMO-LUMO GAP               3.164840778519 eV   |
           -------------------------------------------------

------------------------------------------------------------------------
 * finished run on 2023/12/07 at 00:43:54.709     
------------------------------------------------------------------------
 total:
 * wall-time:     0 d,  0 h,  0 min,  0.046 sec
 *  cpu-time:     0 d,  0 h,  0 min,  0.044 sec
 * ratio c/w:     0.961 speedup
 SCF:
 * wall-time:     0 d,  0 h,  0 min,  0.034 sec
 *  cpu-time:     0 d,  0 h,  0 min,  0.032 sec
 * ratio c/w:     0.936 speedup


-------------------------   --------------------
FINAL SINGLE POINT ENERGY       -57.671242819950
-------------------------   --------------------

------------------------------------------------------------------------------
                         ORCA GEOMETRY RELAXATION STEP
------------------------------------------------------------------------------

Reading the OPT-File                    .... done
Getting information on internals        .... done
Copying old internal coords+grads       .... done
Making the new internal coordinates     .... (new redundants).... done
Validating the new internal coordinates .... (new redundants).... done
Calculating the B-matrix                .... done
Calculating the G,G- and P matrices     .... done
Transforming gradient to internals      .... done
Projecting the internal gradient        .... done
Number of atoms                         ....  27
Number of internal coordinates          .... 125
Current Energy                          ....   -57.671242820 Eh
Current gradient norm                   ....     0.120704958 Eh/bohr
Maximum allowed component of the step   ....  0.300
Current trust radius                    ....  0.300
Evaluating the initial hessian          ....  (Almloef) done
Projecting the Hessian                  .... done
Forming the augmented Hessian           .... done
Diagonalizing the augmented Hessian     .... done
Last element of RFO vector              ....  0.961808107
Lowest eigenvalues of augmented Hessian:
 -0.014476072  0.009187674  0.009461185  0.010845705  0.010855552
Length of the computed step             ....  0.284593792
The final length of the internal step   ....  0.284593792
Converting the step to cartesian space:
 Initial RMS(Int)=    0.0254548426
Transforming coordinates:
 Iter   0:  RMS(Cart)=    0.0818152778 RMS(Int)=    0.0253843382
 Iter   1:  RMS(Cart)=    0.0030819382 RMS(Int)=    0.0018764084
 Iter   2:  RMS(Cart)=    0.0002141995 RMS(Int)=    0.0000786701
 Iter   3:  RMS(Cart)=    0.0000172178 RMS(Int)=    0.0000123016
 Iter   4:  RMS(Cart)=    0.0000013746 RMS(Int)=    0.0000006944
 Iter   5:  RMS(Cart)=    0.0000001161 RMS(Int)=    0.0000000916
 Iter   6:  RMS(Cart)=    0.0000000099 RMS(Int)=    0.0000000065
done
Storing new coordinates                 .... done

                                .--------------------.
          ----------------------|Geometry convergence|-------------------------
          Item                value                   Tolerance       Converged
          ---------------------------------------------------------------------
          RMS gradient        0.0079595419            0.0001000000      NO
          MAX gradient        0.0451726969            0.0003000000      NO
          RMS step            0.0254548426            0.0020000000      NO
          MAX step            0.0700061075            0.0040000000      NO
          ........................................................
          Max(Bonds)      0.0260      Max(Angles)    3.21
          Max(Dihed)        4.01      Max(Improp)    0.00
          ---------------------------------------------------------------------

The optimization has not yet converged - more geometry cycles are needed


    ---------------------------------------------------------------------------
                         Redundant Internal Coordinates
                            (Angstroem and degrees)

        Definition                    Value    dE/dq     Step     New-Value
    ----------------------------------------------------------------------------
     1. B(C   1,C   0)                1.5042  0.008638 -0.0108    1.4935   
     2. B(O   2,C   1)                1.2351  0.044097 -0.0233    1.2118   
     3. B(C   3,C   1)                1.5497  0.011657 -0.0170    1.5326   
     4. B(O   4,C   3)                1.4159  0.011216 -0.0113    1.4045   
     5. B(O   5,C   3)                1.4384  0.013802 -0.0151    1.4233   
     6. B(C   6,C   3)                1.5542  0.004081 -0.0061    1.5482   
     7. B(O   7,C   6)                1.4510  0.022683 -0.0260    1.4250   
     8. B(C   8,C   6)                1.5237  0.001855 -0.0025    1.5212   
     9. B(O   9,C   8)                1.2284  0.045173 -0.0233    1.2051   
    10. B(C  10,C   6)                1.5338  0.004351 -0.0060    1.5278   
    11. B(O  11,C  10)                1.4228  0.002315 -0.0024    1.4204   
    12. B(P  12,O  11)                1.6011  0.004951 -0.0030    1.5981   
    13. B(O  13,P  12)                1.4861  0.028055 -0.0111    1.4750   
    14. B(O  14,P  12)                1.5948  0.004287 -0.0025    1.5923   
    15. B(O  15,P  12)                1.5912  0.005508 -0.0032    1.5880   
    16. B(H  16,C   0)                1.0922  0.003749 -0.0053    1.0869   
    17. B(H  17,C   0)                1.0926  0.002916 -0.0042    1.0884   
    18. B(H  18,C   0)                1.0959  0.004713 -0.0068    1.0891   
    19. B(H  19,O   4)                0.9768  0.007551 -0.0079    0.9689   
    20. B(H  20,O   5)                0.9782  0.008878 -0.0094    0.9689   
    21. B(H  21,O   7)                0.9832  0.010650 -0.0115    0.9717   
    22. B(H  22,C   8)                1.1037  0.003633 -0.0054    1.0983   
    23. B(H  23,C  10)                1.0959  0.002143 -0.0031    1.0928   
    24. B(H  24,C  10)                1.0931 -0.000041  0.0001    1.0931   
    25. B(H  25,O  14)                0.9738  0.015290 -0.0159    0.9579   
    26. B(H  26,O  15)                0.9734  0.015366 -0.0160    0.9575   
    27. A(C   1,C   0,H  18)          108.88  0.001231   -0.06    108.82   
    28. A(C   1,C   0,H  16)          110.04  0.002070   -0.63    109.42   
    29. A(H  17,C   0,H  18)          107.38 -0.004781    1.50    108.87   
    30. A(C   1,C   0,H  17)          110.99  0.000619   -0.01    110.99   
    31. A(H  16,C   0,H  18)          108.94  0.000153   -0.31    108.64   
    32. A(H  16,C   0,H  17)          110.53  0.000552   -0.44    110.09   
    33. A(O   2,C   1,C   3)          120.50  0.008783   -1.11    119.40   
    34. A(C   0,C   1,C   3)          118.94  0.004962   -0.70    118.24   
    35. A(C   0,C   1,O   2)          120.56 -0.013736    1.79    122.35   
    36. A(C   1,C   3,C   6)          113.57 -0.002194   -0.59    112.98   
    37. A(O   4,C   3,O   5)          104.01 -0.008954    3.21    107.21   
    38. A(C   1,C   3,O   4)          110.63  0.004810   -1.04    109.58   
    39. A(C   1,C   3,O   5)          109.44  0.001035   -0.45    108.99   
    40. A(O   5,C   3,C   6)          105.21  0.005215   -0.98    104.23   
    41. A(O   4,C   3,C   6)          113.34 -0.000492    0.18    113.52   
    42. A(C   3,O   4,H  19)          107.88 -0.006845    1.06    108.95   
    43. A(C   3,O   5,H  20)          104.49 -0.010559    1.67    106.16   
    44. A(O   7,C   6,C  10)          106.98  0.000766    0.06    107.05   
    45. A(C   3,C   6,C  10)          116.73 -0.002249    0.15    116.87   
    46. A(O   7,C   6,C   8)          106.65 -0.003424    1.24    107.90   
    47. A(C   3,C   6,C   8)          108.43  0.002490   -0.78    107.66   
    48. A(C   3,C   6,O   7)          107.91  0.001383   -0.33    107.58   
    49. A(C   8,C   6,C  10)          109.67  0.000780   -0.21    109.46   
    50. A(C   6,O   7,H  21)          105.84 -0.004029    0.64    106.49   
    51. A(C   6,C   8,O   9)          123.62 -0.000506    0.15    123.77   
    52. A(O   9,C   8,H  22)          120.55 -0.003526    0.61    121.16   
    53. A(C   6,C   8,H  22)          115.77  0.003940   -0.55    115.21   
    54. A(O  11,C  10,H  24)          106.97 -0.002261    0.91    107.88   
    55. A(H  23,C  10,H  24)          106.95 -0.003358    0.67    107.61   
    56. A(C   6,C  10,H  24)          112.15  0.003788   -0.62    111.53   
    57. A(O  11,C  10,H  23)          109.76 -0.000339   -0.05    109.71   
    58. A(C   6,C  10,H  23)          109.69  0.005183   -1.33    108.36   
    59. A(C   6,C  10,O  11)          111.19 -0.003241    0.49    111.68   
    60. A(C  10,O  11,P  12)          117.84  0.003150   -0.37    117.47   
    61. A(O  14,P  12,O  15)          101.71 -0.003937    0.73    102.44   
    62. A(O  13,P  12,O  15)          115.16 -0.002702    0.48    115.64   
    63. A(O  11,P  12,O  15)          104.12  0.004710   -0.85    103.27   
    64. A(O  13,P  12,O  14)          114.00 -0.004160    0.81    114.81   
    65. A(O  11,P  12,O  14)          102.68  0.003621   -0.58    102.10   
    66. A(O  11,P  12,O  13)          117.23  0.002701   -0.61    116.61   
    67. A(P  12,O  14,H  25)          111.83  0.001951   -0.26    111.57   
    68. A(P  12,O  15,H  26)          111.37  0.001972   -0.26    111.11   
    69. D(C   3,C   1,C   0,H  18)    149.45 -0.001564   -0.70    148.75   
    70. D(C   3,C   1,C   0,H  17)     31.46  0.003160   -2.49     28.97   
    71. D(O   2,C   1,C   0,H  17)   -147.95  0.002188   -0.43   -148.38   
    72. D(O   2,C   1,C   0,H  16)     89.38 -0.000361    0.57     89.95   
    73. D(C   3,C   1,C   0,H  16)    -91.21  0.000612   -1.49    -92.70   
    74. D(O   2,C   1,C   0,H  18)    -29.96 -0.002536    1.36    -28.60   
    75. D(C   6,C   3,C   1,C   0)     71.96 -0.001303   -0.01     71.95   
    76. D(O   4,C   3,C   1,C   0)    -56.80 -0.002945    1.13    -55.67   
    77. D(C   6,C   3,C   1,O   2)   -108.64 -0.000468   -2.05   -110.68   
    78. D(O   5,C   3,C   1,O   2)      8.59  0.005412   -3.94      4.65   
    79. D(O   4,C   3,C   1,O   2)    122.61 -0.002111   -0.91    121.70   
    80. D(O   5,C   3,C   1,C   0)   -170.82  0.004577   -1.90   -172.72   
    81. D(H  19,O   4,C   3,C   6)     -2.62 -0.000539    1.68     -0.94   
    82. D(H  19,O   4,C   3,O   5)   -116.33 -0.001281    0.89   -115.44   
    83. D(H  19,O   4,C   3,C   1)    126.26  0.000172    0.13    126.39   
    84. D(H  20,O   5,C   3,C   6)    152.90  0.001709   -1.99    150.91   
    85. D(H  20,O   5,C   3,O   4)    -87.70 -0.000605   -0.76    -88.46   
    86. D(H  20,O   5,C   3,C   1)     30.53  0.000683   -0.47     30.07   
    87. D(C  10,C   6,C   3,O   4)     57.72  0.003568   -0.97     56.75   
    88. D(C  10,C   6,C   3,C   1)    -69.64 -0.000808    0.84    -68.80   
    89. D(C   8,C   6,C   3,O   5)    -64.89 -0.002818    1.54    -63.35   
    90. D(C   8,C   6,C   3,O   4)   -177.87  0.005022   -1.79   -179.66   
    91. D(C   8,C   6,C   3,C   1)     54.77  0.000646    0.02     54.80   
    92. D(O   7,C   6,C   3,O   4)    -62.71  0.003006   -0.90    -63.61   
    93. D(O   7,C   6,C   3,O   5)     50.27 -0.004835    2.43     52.70   
    94. D(C  10,C   6,C   3,O   5)    170.70 -0.004272    2.36    173.06   
    95. D(O   7,C   6,C   3,C   1)    169.94 -0.001371    0.91    170.85   
    96. D(H  21,O   7,C   6,C  10)   -156.41  0.000741   -0.65   -157.06   
    97. D(H  21,O   7,C   6,C   8)     86.28  0.001166   -1.06     85.22   
    98. D(H  21,O   7,C   6,C   3)    -30.05 -0.000667   -0.63    -30.68   
    99. D(O   9,C   8,C   6,C   3)   -104.54  0.001061   -1.04   -105.58   
   100. D(H  22,C   8,C   6,C  10)   -159.11 -0.001531    3.07   -156.04   
   101. D(H  22,C   8,C   6,O   7)    -43.60 -0.002085    3.71    -39.89   
   102. D(H  22,C   8,C   6,C   3)     72.38 -0.001009    3.59     75.97   
   103. D(O   9,C   8,C   6,C  10)     23.97  0.000539   -1.56     22.41   
   104. D(O   9,C   8,C   6,O   7)    139.48 -0.000014   -0.91    138.57   
   105. D(H  24,C  10,C   6,C   8)    -45.79 -0.003300    1.50    -44.29   
   106. D(H  24,C  10,C   6,O   7)   -161.09 -0.000079    0.11   -160.98   
   107. D(H  24,C  10,C   6,C   3)     78.00 -0.000987    0.38     78.38   
   108. D(H  23,C  10,C   6,C   8)     72.90 -0.001689    1.06     73.96   
   109. D(H  23,C  10,C   6,O   7)    -42.41  0.001531   -0.33    -42.74   
   110. D(H  23,C  10,C   6,C   3)   -163.32  0.000623   -0.06   -163.38   
   111. D(O  11,C  10,C   6,C   8)   -165.51 -0.000751    0.42   -165.09   
   112. D(O  11,C  10,C   6,O   7)     79.19  0.002469   -0.97     78.21   
   113. D(O  11,C  10,C   6,C   3)    -41.73  0.001562   -0.70    -42.42   
   114. D(P  12,O  11,C  10,H  24)    109.88 -0.004267    3.88    113.76   
   115. D(P  12,O  11,C  10,H  23)     -5.80  0.001100    2.63     -3.18   
   116. D(P  12,O  11,C  10,C   6)   -127.36 -0.003059    4.01   -123.35   
   117. D(O  15,P  12,O  11,C  10)     81.18  0.000118    2.26     83.44   
   118. D(O  14,P  12,O  11,C  10)   -173.09 -0.001505    2.59   -170.49   
   119. D(O  13,P  12,O  11,C  10)    -47.31 -0.002270    2.78    -44.53   
   120. D(H  25,O  14,P  12,O  15)   -167.89  0.003965    0.10   -167.79   
   121. D(H  25,O  14,P  12,O  13)    -43.31 -0.004371    1.64    -41.67   
   122. D(H  25,O  14,P  12,O  11)     84.53 -0.000908    0.95     85.48   
   123. D(H  26,O  15,P  12,O  14)     77.32 -0.005469    2.81     80.13   
   124. D(H  26,O  15,P  12,O  13)    -46.48  0.003986    1.02    -45.46   
   125. D(H  26,O  15,P  12,O  11)   -176.23 -0.001496    2.18   -174.05   
    ----------------------------------------------------------------------------

         *************************************************************
         *                GEOMETRY OPTIMIZATION CYCLE   2            *
         *************************************************************
---------------------------------
CARTESIAN COORDINATES (ANGSTROEM)
---------------------------------
  C    -2.092885    1.437040   -0.513243
  C    -2.339652    0.257637    0.369137
  O    -3.368841    0.119513    0.993794
  C    -1.270028   -0.838303    0.430204
  O    -1.007321   -1.312364   -0.865539
  O    -1.772875   -1.934485    1.185995
  C     0.001429   -0.399441    1.196777
  O     0.819125   -1.553469    1.370677
  C    -0.432133    0.078215    2.574447
  O    -0.468856    1.238112    2.899375
  C     0.870603    0.670136    0.537449
  O     1.021107    0.438536   -0.855849
  P     2.508576    0.303012   -1.424107
  O     3.492477    1.290723   -0.942471
  O     2.266907    0.313946   -2.997876
  O     2.868696   -1.218077   -1.144072
  H    -1.621639    2.228007    0.064345
  H    -1.463634    1.166158   -1.359016
  H    -3.048406    1.801618   -0.887665
  H    -0.054892   -1.256069   -1.034016
  H    -2.732527   -1.936164    1.052753
  H     0.215464   -2.312483    1.431890
  H    -0.692387   -0.718429    3.284329
  H     1.850944    0.662784    1.020293
  H     0.445451    1.668721    0.667752
  H     2.222680    1.207125   -3.341119
  H     3.782819   -1.401703   -1.361845

----------------------------
CARTESIAN COORDINATES (A.U.)
----------------------------
  NO LB    ZA    FRAG    MASS        X           Y           Z
   0 C   6.0000    0    12.011   -3.954980    2.715612   -0.969888
   1 C   6.0000    0    12.011   -4.421302    0.486864    0.697568
   2 O   8.0000    0    15.999   -6.366188    0.225847    1.877999
   3 C   6.0000    0    12.011   -2.400005   -1.584163    0.812967
   4 O   8.0000    0    15.999   -1.903560   -2.480009   -1.635631
   5 O   8.0000    0    15.999   -3.350248   -3.655647    2.241206
   6 C   6.0000    0    12.011    0.002700   -0.754833    2.261581
   7 O   8.0000    0    15.999    1.547922   -2.935630    2.590205
   8 C   6.0000    0    12.011   -0.816613    0.147806    4.865000
   9 O   8.0000    0    15.999   -0.886010    2.339693    5.479025
  10 C   6.0000    0    12.011    1.645201    1.266374    1.015632
  11 O   8.0000    0    15.999    1.929612    0.828714   -1.617320
  12 P  15.0000    0    30.974    4.740521    0.572610   -2.691173
  13 O   8.0000    0    15.999    6.599825    2.439113   -1.781013
  14 O   8.0000    0    15.999    4.283833    0.593272   -5.665164
  15 O   8.0000    0    15.999    5.421051   -2.301833   -2.161983
  16 H   1.0000    0     1.008   -3.064453    4.210324    0.121594
  17 H   1.0000    0     1.008   -2.765868    2.203720   -2.568168
  18 H   1.0000    0     1.008   -5.760653    3.404564   -1.677444
  19 H   1.0000    0     1.008   -0.103731   -2.373626   -1.954008
  20 H   1.0000    0     1.008   -5.163728   -3.658820    1.989415
  21 H   1.0000    0     1.008    0.407168   -4.369960    2.705880
  22 H   1.0000    0     1.008   -1.308421   -1.357634    6.206483
  23 H   1.0000    0     1.008    3.497778    1.252481    1.928075
  24 H   1.0000    0     1.008    0.841781    3.153425    1.261868
  25 H   1.0000    0     1.008    4.200257    2.281136   -6.313799
  26 H   1.0000    0     1.008    7.148491   -2.648834   -2.573515

      -----------------------------------------------------------      
     |                   =====================                   |     
     |                           x T B                           |     
     |                   =====================                   |     
     |                         S. Grimme                         |     
     |          Mulliken Center for Theoretical Chemistry        |     
     |                    University of Bonn                     |     
      -----------------------------------------------------------      

   * xtb version 6.5.1 (579679a) compiled by 'ehlert@majestix' on 2022-07-11

   xtb is free software: you can redistribute it and/or modify it under
   the terms of the GNU Lesser General Public License as published by
   the Free Software Foundation, either version 3 of the License, or
   (at your option) any later version.
   
   xtb is distributed in the hope that it will be useful,
   but WITHOUT ANY WARRANTY; without even the implied warranty of
   MERCHANTABILITY or FITNESS FOR A PARTICULAR PURPOSE.  See the
   GNU Lesser General Public License for more details.
   
   Cite this work as:
   * C. Bannwarth, E. Caldeweyher, S. Ehlert, A. Hansen, P. Pracht,
     J. Seibert, S. Spicher, S. Grimme, WIREs Comput. Mol. Sci., 2020, 11,
     e01493. DOI: 10.1002/wcms.1493
   
   for GFN2-xTB:
   * C. Bannwarth, S. Ehlert and S. Grimme., J. Chem. Theory Comput., 2019,
     15, 1652-1671. DOI: 10.1021/acs.jctc.8b01176
   for GFN1-xTB:
   * S. Grimme, C. Bannwarth, P. Shushkov, J. Chem. Theory Comput., 2017,
     13, 1989-2009. DOI: 10.1021/acs.jctc.7b00118
   for GFN0-xTB:
   * P. Pracht, E. Caldeweyher, S. Ehlert, S. Grimme, ChemRxiv, 2019, preprint.
     DOI: 10.26434/chemrxiv.8326202.v1
   for GFN-FF:
   * S. Spicher and S. Grimme, Angew. Chem. Int. Ed., 2020, 59, 15665-15673.
     DOI: 10.1002/anie.202004239
   
   for ALPB and GBSA implicit solvation:
   * S. Ehlert, M. Stahn, S. Spicher, S. Grimme, J. Chem. Theory Comput.,
     2021, 17, 4250-4261. DOI: 10.1021/acs.jctc.1c00471
   
   for DFT-D4:
   * E. Caldeweyher, C. Bannwarth and S. Grimme, J. Chem. Phys., 2017,
     147, 034112. DOI: 10.1063/1.4993215
   * E. Caldeweyher, S. Ehlert, A. Hansen, H. Neugebauer, S. Spicher,
     C. Bannwarth and S. Grimme, J. Chem. Phys., 2019, 150, 154122.
     DOI: 10.1063/1.5090222
   * E. Caldeweyher, J.-M. Mewes, S. Ehlert and S. Grimme, Phys. Chem. Chem. Phys.
     2020, 22, 8499-8512. DOI: 10.1039/D0CP00502A
   
   for sTDA-xTB:
   * S. Grimme and C. Bannwarth, J. Chem. Phys., 2016, 145, 054103.
     DOI: 10.1063/1.4959605
   
   in the mass-spec context:
   * V. Asgeirsson, C. Bauer and S. Grimme, Chem. Sci., 2017, 8, 4879.
     DOI: 10.1039/c7sc00601b
   * J. Koopman and S. Grimme, ACS Omega 2019, 4, 12, 15120-15133.
     DOI: 10.1021/acsomega.9b02011
   
   for metadynamics refer to:
   * S. Grimme, J. Chem. Theory Comput., 2019, 155, 2847-2862
     DOI: 10.1021/acs.jctc.9b00143
   
   for SPH calculations refer to:
   * S. Spicher and S. Grimme, J. Chem. Theory Comput., 2021, 17, 1701-1714
     DOI: 10.1021/acs.jctc.0c01306
   
   with help from (in alphabetical order)
   P. Atkinson, C. Bannwarth, F. Bohle, G. Brandenburg, E. Caldeweyher
   M. Checinski, S. Dohm, S. Ehlert, S. Ehrlich, I. Gerasimov, C. Hölzer
   A. Katbashev, J. Koopman, C. Lavigne, S. Lehtola, F. März, M. Müller,
   F. Musil, H. Neugebauer, J. Pisarek, C. Plett, P. Pracht, F. Pultar,
   J. Seibert, P. Shushkov, S. Spicher, M. Stahn, M. Steiner, T. Strunk,
   J. Stückrath, T. Rose, and J. Unsleber
   
 * started run on 2023/12/07 at 00:43:54.793     

           -------------------------------------------------
          |                Calculation Setup                |
           -------------------------------------------------

          program call               : otool_xtb /tmp/36_XTB.xyz --grad -c 0 -u 0 -P 1 --namespace /tmp/36 --input /tmp/36_XTB.input.tmp --acc 1.000000
          calculation namespace      : /tmp/36
          coordinate file            : /tmp/36_XTB.xyz
          omp threads                :                     1

   ID    Z sym.   atoms
    1    6 C      1, 2, 4, 7, 9, 11
    2    8 O      3, 5, 6, 8, 10, 12, 14-16
    3   15 P      13
    4    1 H      17-27

           -------------------------------------------------
          |                 G F N 2 - x T B                 |
           -------------------------------------------------

        Reference                      10.1021/acs.jctc.8b01176
      * Hamiltonian:
        H0-scaling (s, p, d)           1.850000    2.230000    2.230000
        zeta-weighting                 0.500000
      * Dispersion:
        s8                             2.700000
        a1                             0.520000
        a2                             5.000000
        s9                             5.000000
      * Repulsion:
        kExp                           1.500000    1.000000
        rExp                           1.000000
      * Coulomb:
        alpha                          2.000000
        third order                    shell-resolved
        anisotropic                    true
        a3                             3.000000
        a5                             4.000000
        cn-shift                       1.200000
        cn-exp                         4.000000
        max-rad                        5.000000

q/qsh data taken from xtbrestart
CAMM data taken from xtbrestart

          ...................................................
          :                      SETUP                      :
          :.................................................:
          :  # basis functions                  81          :
          :  # atomic orbitals                  80          :
          :  # shells                           44          :
          :  # electrons                        94          :
          :  max. iterations                   250          :
          :  Hamiltonian                  GFN2-xTB          :
          :  restarted?                       true          :
          :  GBSA solvation                  false          :
          :  PC potential                    false          :
          :  electronic temp.          300.0000000     K    :
          :  accuracy                    1.0000000          :
          :  -> integral cutoff          0.2500000E+02      :
          :  -> integral neglect         0.1000000E-07      :
          :  -> SCF convergence          0.1000000E-05 Eh   :
          :  -> wf. convergence          0.1000000E-03 e    :
          :  Broyden damping             0.4000000          :
          ...................................................

 iter      E             dE          RMSdq      gap      omega  full diag
   1    -58.0898230 -0.580898E+02  0.452E-01    3.31       0.0  T
   2    -58.0899216 -0.986098E-04  0.282E-01    3.29       1.0  T
   3    -58.0898725  0.491196E-04  0.572E-02    3.29       1.0  T
   4    -58.0899375 -0.650379E-04  0.158E-02    3.28       1.2  T
   5    -58.0899406 -0.304713E-05  0.675E-03    3.29       2.9  T
   6    -58.0899407 -0.116234E-06  0.264E-03    3.29       7.3  T
   7    -58.0899407 -0.145932E-07  0.106E-03    3.29      18.2  T
   8    -58.0899407 -0.428978E-08  0.359E-04    3.29      53.6  T
   9    -58.0899407 -0.561990E-09  0.114E-04    3.29     168.5  T

   *** convergence criteria satisfied after 9 iterations ***

         #    Occupation            Energy/Eh            Energy/eV
      -------------------------------------------------------------
         1        2.0000           -0.7642589             -20.7965
       ...           ...                  ...                  ...
        41        2.0000           -0.4756662             -12.9435
        42        2.0000           -0.4678403             -12.7306
        43        2.0000           -0.4619638             -12.5707
        44        2.0000           -0.4534314             -12.3385
        45        2.0000           -0.4510023             -12.2724
        46        2.0000           -0.4259141             -11.5897
        47        2.0000           -0.4233169             -11.5190 (HOMO)
        48                         -0.3025613              -8.2331 (LUMO)
        49                         -0.2908008              -7.9131
        50                         -0.0925296              -2.5179
        51                         -0.0585515              -1.5933
        52                         -0.0373427              -1.0161
       ...                                ...                  ...
        80                          1.2101634              32.9302
      -------------------------------------------------------------
                  HL-Gap            0.1207556 Eh            3.2859 eV
             Fermi-level           -0.3629391 Eh           -9.8761 eV

 SCC (total)                   0 d,  0 h,  0 min,  0.031 sec
 SCC setup                      ...        0 min,  0.000 sec (  0.590%)
 Dispersion                     ...        0 min,  0.000 sec (  0.659%)
 classical contributions        ...        0 min,  0.000 sec (  0.141%)
 integral evaluation            ...        0 min,  0.005 sec ( 17.006%)
 iterations                     ...        0 min,  0.010 sec ( 33.327%)
 molecular gradient             ...        0 min,  0.015 sec ( 47.792%)
 printout                       ...        0 min,  0.000 sec (  0.440%)

         :::::::::::::::::::::::::::::::::::::::::::::::::::::
         ::                     SUMMARY                     ::
         :::::::::::::::::::::::::::::::::::::::::::::::::::::
         :: total energy             -57.681058668979 Eh    ::
         :: gradient norm              0.052642951101 Eh/a0 ::
         :: HOMO-LUMO gap              3.285925836624 eV    ::
         ::.................................................::
         :: SCC energy               -58.089940700849 Eh    ::
         :: -> isotropic ES            0.221660069650 Eh    ::
         :: -> anisotropic ES         -0.008717185564 Eh    ::
         :: -> anisotropic XC         -0.003661660097 Eh    ::
         :: -> dispersion             -0.027320557509 Eh    ::
         :: repulsion energy           0.408521813256 Eh    ::
         :: add. restraining           0.000000000000 Eh    ::
         :: total charge              -0.000000000000 e     ::
         :::::::::::::::::::::::::::::::::::::::::::::::::::::


Property printout bound to 'properties.out'

           -------------------------------------------------
          | TOTAL ENERGY              -57.681058668979 Eh   |
          | GRADIENT NORM               0.052642951101 Eh/α |
          | HOMO-LUMO GAP               3.285925836624 eV   |
           -------------------------------------------------

------------------------------------------------------------------------
 * finished run on 2023/12/07 at 00:43:54.836     
------------------------------------------------------------------------
 total:
 * wall-time:     0 d,  0 h,  0 min,  0.043 sec
 *  cpu-time:     0 d,  0 h,  0 min,  0.040 sec
 * ratio c/w:     0.936 speedup
 SCF:
 * wall-time:     0 d,  0 h,  0 min,  0.031 sec
 *  cpu-time:     0 d,  0 h,  0 min,  0.032 sec
 * ratio c/w:     1.023 speedup


-------------------------   --------------------
FINAL SINGLE POINT ENERGY       -57.681058668980
-------------------------   --------------------

------------------------------------------------------------------------------
                         ORCA GEOMETRY RELAXATION STEP
------------------------------------------------------------------------------

Reading the OPT-File                    .... done
Getting information on internals        .... done
Copying old internal coords+grads       .... done
Making the new internal coordinates     .... (new redundants).... done
Validating the new internal coordinates .... (new redundants).... done
Calculating the B-matrix                .... done
Calculating the G,G- and P matrices     .... done
Transforming gradient to internals      .... done
Projecting the internal gradient        .... done
Number of atoms                         ....  27
Number of internal coordinates          .... 125
Current Energy                          ....   -57.681058669 Eh
Current gradient norm                   ....     0.052642951 Eh/bohr
Maximum allowed component of the step   ....  0.300
Current trust radius                    ....  0.300
Updating the Hessian (BFGS)             .... done
Forming the augmented Hessian           .... done
Diagonalizing the augmented Hessian     .... done
Last element of RFO vector              ....  0.923317145
Lowest eigenvalues of augmented Hessian:
 -0.006426918  0.009183512  0.009458585  0.010846123  0.010857125
Length of the computed step             ....  0.415933297
Warning: the length of the step is outside the trust region - taking restricted step instead
The input lambda is                     ....    -0.006427
   iter:   1  x=   -0.011591  g=   16.072205 f(x)=     0.083001
   iter:   2  x=   -0.014581  g=    8.033469 f(x)=     0.024022
   iter:   3  x=   -0.015215  g=    5.762633 f(x)=     0.003653
   iter:   4  x=   -0.015237  g=    5.397772 f(x)=     0.000117
   iter:   5  x=   -0.015237  g=    5.385827 f(x)=     0.000000
   iter:   6  x=   -0.015237  g=    5.385814 f(x)=     0.000000
   iter:   7  x=   -0.015237  g=    5.385814 f(x)=     0.000000
The output lambda is                    ....    -0.015237 (7 iterations)
The final length of the internal step   ....  0.300000000
Converting the step to cartesian space:
 Initial RMS(Int)=    0.0268328157
Transforming coordinates:
 Iter   0:  RMS(Cart)=    0.1125898052 RMS(Int)=    0.5600534956
 Iter   1:  RMS(Cart)=    0.0067010277 RMS(Int)=    0.0039449585
 Iter   2:  RMS(Cart)=    0.0007118303 RMS(Int)=    0.0002339253
 Iter   3:  RMS(Cart)=    0.0000868765 RMS(Int)=    0.0000547012
 Iter   4:  RMS(Cart)=    0.0000103376 RMS(Int)=    0.0000048575
 Iter   5:  RMS(Cart)=    0.0000012806 RMS(Int)=    0.0000008478
 Iter   6:  RMS(Cart)=    0.0000001589 RMS(Int)=    0.0000001010
 Iter   7:  RMS(Cart)=    0.0000000204 RMS(Int)=    0.0000000143
done
Storing new coordinates                 .... done

                                .--------------------.
          ----------------------|Geometry convergence|-------------------------
          Item                value                   Tolerance       Converged
          ---------------------------------------------------------------------
          Energy change      -0.0098158490            0.0000050000      NO
          RMS gradient        0.0029453202            0.0001000000      NO
          MAX gradient        0.0165037801            0.0003000000      NO
          RMS step            0.0268328157            0.0020000000      NO
          MAX step            0.1079589930            0.0040000000      NO
          ........................................................
          Max(Bonds)      0.0177      Max(Angles)    1.92
          Max(Dihed)        6.19      Max(Improp)    0.00
          ---------------------------------------------------------------------

The optimization has not yet converged - more geometry cycles are needed


    ---------------------------------------------------------------------------
                         Redundant Internal Coordinates
                            (Angstroem and degrees)

        Definition                    Value    dE/dq     Step     New-Value
    ----------------------------------------------------------------------------
     1. B(C   1,C   0)                1.4935  0.000190 -0.0024    1.4911   
     2. B(O   2,C   1)                1.2118  0.008543 -0.0112    1.2006   
     3. B(C   3,C   1)                1.5326 -0.004134  0.0054    1.5380   
     4. B(O   4,C   3)                1.4045  0.005182 -0.0097    1.3948   
     5. B(O   5,C   3)                1.4233  0.007392 -0.0145    1.4087   
     6. B(C   6,C   3)                1.5482 -0.005141  0.0097    1.5579   
     7. B(O   7,C   6)                1.4250  0.007709 -0.0177    1.4073   
     8. B(C   8,C   6)                1.5212 -0.003699  0.0066    1.5278   
     9. B(O   9,C   8)                1.2051  0.011104 -0.0130    1.1921   
    10. B(C  10,C   6)                1.5278 -0.001326  0.0015    1.5293   
    11. B(O  11,C  10)                1.4204  0.001960 -0.0034    1.4170   
    12. B(P  12,O  11)                1.5981  0.001306 -0.0017    1.5963   
    13. B(O  13,P  12)                1.4750  0.016504 -0.0117    1.4633   
    14. B(O  14,P  12)                1.5923  0.002629 -0.0027    1.5895   
    15. B(O  15,P  12)                1.5880  0.002900 -0.0031    1.5850   
    16. B(H  16,C   0)                1.0869 -0.000356 -0.0003    1.0866   
    17. B(H  17,C   0)                1.0884  0.000809 -0.0024    1.0860   
    18. B(H  18,C   0)                1.0891  0.000526 -0.0024    1.0867   
    19. B(H  19,O   4)                0.9689  0.001205 -0.0034    0.9655   
    20. B(H  20,O   5)                0.9689  0.000430 -0.0025    0.9664   
    21. B(H  21,O   7)                0.9717  0.001615 -0.0047    0.9670   
    22. B(H  22,C   8)                1.0983 -0.001166  0.0014    1.0998   
    23. B(H  23,C  10)                1.0928 -0.000118 -0.0003    1.0925   
    24. B(H  24,C  10)                1.0931  0.000388 -0.0008    1.0923   
    25. B(H  25,O  14)                0.9579  0.002142 -0.0063    0.9516   
    26. B(H  26,O  15)                0.9575  0.001956 -0.0060    0.9514   
    27. A(C   1,C   0,H  18)          108.81  0.000257    0.04    108.85   
    28. A(C   1,C   0,H  16)          109.41  0.000806   -0.53    108.88   
    29. A(H  17,C   0,H  18)          108.87 -0.002631    1.46    110.33   
    30. A(C   1,C   0,H  17)          110.98  0.000358    0.00    110.98   
    31. A(H  16,C   0,H  18)          108.63  0.000650   -0.47    108.17   
    32. A(H  16,C   0,H  17)          110.08  0.000548   -0.47    109.61   
    33. A(O   2,C   1,C   3)          119.39  0.003543   -0.85    118.54   
    34. A(C   0,C   1,C   3)          118.22  0.002993   -0.74    117.48   
    35. A(C   0,C   1,O   2)          122.34 -0.006526    1.56    123.90   
    36. A(C   1,C   3,C   6)          112.97 -0.002243    0.22    113.18   
    37. A(O   4,C   3,O   5)          107.22 -0.003307    1.92    109.14   
    38. A(C   1,C   3,O   4)          109.58  0.002368   -0.89    108.69   
    39. A(C   1,C   3,O   5)          108.99  0.000566   -0.34    108.64   
    40. A(O   5,C   3,C   6)          104.21  0.002331   -0.81    103.40   
    41. A(O   4,C   3,C   6)          113.51  0.000156    0.02    113.53   
    42. A(C   3,O   4,H  19)          108.95 -0.004440    1.19    110.13   
    43. A(C   3,O   5,H  20)          106.16 -0.006320    1.74    107.89   
    44. A(O   7,C   6,C  10)          107.05  0.000997   -0.17    106.87   
    45. A(C   3,C   6,C  10)          116.87 -0.001544    0.23    117.10   
    46. A(O   7,C   6,C   8)          107.90 -0.002223    1.31    109.21   
    47. A(C   3,C   6,C   8)          107.66  0.001551   -0.77    106.89   
    48. A(C   3,C   6,O   7)          107.58  0.000246    0.02    107.60   
    49. A(C   8,C   6,C  10)          109.46  0.000791   -0.47    108.99   
    50. A(C   6,O   7,H  21)          106.49 -0.004403    1.12    107.61   
    51. A(C   6,C   8,O   9)          123.72 -0.001795    0.31    124.03   
    52. A(O   9,C   8,H  22)          121.11 -0.002851    0.66    121.77   
    53. A(C   6,C   8,H  22)          115.16  0.004621   -1.27    113.89   
    54. A(O  11,C  10,H  24)          107.88 -0.000697    0.74    108.62   
    55. A(H  23,C  10,H  24)          107.60 -0.001793    0.62    108.22   
    56. A(C   6,C  10,H  24)          111.52  0.001578   -0.43    111.09   
    57. A(O  11,C  10,H  23)          109.71 -0.000069   -0.11    109.60   
    58. A(C   6,C  10,H  23)          108.36  0.003282   -1.39    106.97   
    59. A(C   6,C  10,O  11)          111.68 -0.002333    0.60    112.28   
    60. A(C  10,O  11,P  12)          117.47  0.001590   -0.34    117.12   
    61. A(O  14,P  12,O  15)          102.43 -0.001248    0.52    102.96   
    62. A(O  13,P  12,O  15)          115.63 -0.001696    0.52    116.15   
    63. A(O  11,P  12,O  15)          103.27  0.002404   -0.80    102.47   
    64. A(O  13,P  12,O  14)          114.80 -0.002697    0.86    115.65   
    65. A(O  11,P  12,O  14)          102.10  0.002112   -0.61    101.49   
    66. A(O  11,P  12,O  13)          116.61  0.001568   -0.57    116.04   
    67. A(P  12,O  14,H  25)          111.57  0.001216   -0.28    111.29   
    68. A(P  12,O  15,H  26)          111.11  0.000197   -0.09    111.02   
    69. D(C   3,C   1,C   0,H  18)    148.73 -0.000952   -0.10    148.63   
    70. D(C   3,C   1,C   0,H  17)     28.96  0.001910   -1.91     27.04   
    71. D(O   2,C   1,C   0,H  17)   -148.36  0.001568   -1.57   -149.93   
    72. D(O   2,C   1,C   0,H  16)     89.96  0.000110   -0.61     89.35   
    73. D(C   3,C   1,C   0,H  16)    -92.72  0.000452   -0.95    -93.67   
    74. D(O   2,C   1,C   0,H  18)    -28.59 -0.001294    0.25    -28.34   
    75. D(C   6,C   3,C   1,C   0)     71.94 -0.000219   -0.52     71.42   
    76. D(O   4,C   3,C   1,C   0)    -55.69 -0.000604    0.01    -55.69   
    77. D(C   6,C   3,C   1,O   2)   -110.66 -0.000166   -0.81   -111.48   
    78. D(O   5,C   3,C   1,O   2)      4.67  0.001760   -1.91      2.76   
    79. D(O   4,C   3,C   1,O   2)    121.71 -0.000551   -0.29    121.42   
    80. D(O   5,C   3,C   1,C   0)   -172.73  0.001706   -1.62   -174.35   
    81. D(H  19,O   4,C   3,C   6)     -0.93 -0.000364    2.39      1.46   
    82. D(H  19,O   4,C   3,O   5)   -115.45 -0.001235    2.19   -113.27   
    83. D(H  19,O   4,C   3,C   1)    126.40 -0.001310    1.96    128.35   
    84. D(H  20,O   5,C   3,C   6)    150.92  0.000302   -1.69    149.22   
    85. D(H  20,O   5,C   3,O   4)    -88.47  0.000090   -1.15    -89.62   
    86. D(H  20,O   5,C   3,C   1)     30.07  0.001356   -1.31     28.76   
    87. D(C  10,C   6,C   3,O   4)     56.75  0.001025   -0.53     56.21   
    88. D(C  10,C   6,C   3,C   1)    -68.79 -0.000474    0.48    -68.31   
    89. D(C   8,C   6,C   3,O   5)    -63.35 -0.000223    0.20    -63.16   
    90. D(C   8,C   6,C   3,O   4)   -179.66  0.002240   -1.63   -181.29   
    91. D(C   8,C   6,C   3,C   1)     54.80  0.000741   -0.61     54.19   
    92. D(O   7,C   6,C   3,O   4)    -63.61  0.000561   -0.48    -64.09   
    93. D(O   7,C   6,C   3,O   5)     52.70 -0.001902    1.35     54.05   
    94. D(C  10,C   6,C   3,O   5)    173.05 -0.001438    1.29    174.35   
    95. D(O   7,C   6,C   3,C   1)    170.85 -0.000938    0.54    171.39   
    96. D(H  21,O   7,C   6,C  10)   -157.06  0.001019   -1.43   -158.49   
    97. D(H  21,O   7,C   6,C   8)     85.22  0.000717   -1.46     83.76   
    98. D(H  21,O   7,C   6,C   3)    -30.68 -0.000089   -1.25    -31.92   
    99. D(O   9,C   8,C   6,C   3)   -105.58 -0.001030    3.98   -101.60   
   100. D(H  22,C   8,C   6,C  10)   -156.04 -0.000283   -0.64   -156.68   
   101. D(H  22,C   8,C   6,O   7)    -39.88  0.000094   -0.37    -40.25   
   102. D(H  22,C   8,C   6,C   3)     75.97  0.000043   -0.05     75.91   
   103. D(O   9,C   8,C   6,C  10)     22.41 -0.001356    3.40     25.81   
   104. D(O   9,C   8,C   6,O   7)    138.57 -0.000978    3.67    142.23   
   105. D(H  24,C  10,C   6,C   8)    -44.29 -0.001981    1.79    -42.51   
   106. D(H  24,C  10,C   6,O   7)   -160.99 -0.000314    0.58   -160.41   
   107. D(H  24,C  10,C   6,C   3)     78.37 -0.000388    0.53     78.90   
   108. D(H  23,C  10,C   6,C   8)     73.96 -0.001196    1.40     75.36   
   109. D(H  23,C  10,C   6,O   7)    -42.74  0.000472    0.19    -42.55   
   110. D(H  23,C  10,C   6,C   3)   -163.38  0.000398    0.14   -163.23   
   111. D(O  11,C  10,C   6,C   8)   -165.09 -0.000565    0.72   -164.37   
   112. D(O  11,C  10,C   6,O   7)     78.22  0.001102   -0.49     77.73   
   113. D(O  11,C  10,C   6,C   3)    -42.42  0.001028   -0.53    -42.96   
   114. D(P  12,O  11,C  10,H  24)    113.76 -0.003317    5.85    119.61   
   115. D(P  12,O  11,C  10,H  23)     -3.18 -0.000746    4.76      1.58   
   116. D(P  12,O  11,C  10,C   6)   -123.34 -0.003312    6.19   -117.16   
   117. D(O  15,P  12,O  11,C  10)     83.44 -0.001021    3.26     86.70   
   118. D(O  14,P  12,O  11,C  10)   -170.49 -0.001006    3.39   -167.10   
   119. D(O  13,P  12,O  11,C  10)    -44.54 -0.001844    3.65    -40.88   
   120. D(H  25,O  14,P  12,O  15)   -167.80  0.002092    0.28   -167.52   
   121. D(H  25,O  14,P  12,O  13)    -41.66 -0.002606    1.79    -39.87   
   122. D(H  25,O  14,P  12,O  11)     85.48 -0.000727    1.15     86.63   
   123. D(H  26,O  15,P  12,O  14)     80.13 -0.003596    3.23     83.36   
   124. D(H  26,O  15,P  12,O  13)    -45.46  0.001800    1.48    -43.99   
   125. D(H  26,O  15,P  12,O  11)   -174.05 -0.001010    2.51   -171.54   
    ----------------------------------------------------------------------------

         *************************************************************
         *                GEOMETRY OPTIMIZATION CYCLE   3            *
         *************************************************************
---------------------------------
CARTESIAN COORDINATES (ANGSTROEM)
---------------------------------
  C    -2.119320    1.405581   -0.516979
  C    -2.350520    0.229419    0.369842
  O    -3.359913    0.049928    0.994596
  C    -1.250490   -0.843972    0.426513
  O    -0.998386   -1.294646   -0.869185
  O    -1.711875   -1.920890    1.208778
  C     0.028352   -0.371919    1.180716
  O     0.867575   -1.490705    1.337559
  C    -0.422303    0.115324    2.556802
  O    -0.551017    1.263539    2.850470
  C     0.865558    0.721294    0.515417
  O     1.023237    0.505221   -0.876148
  P     2.507973    0.267258   -1.412111
  O     3.546929    1.112924   -0.823229
  O     2.306211    0.418151   -2.981549
  O     2.692359   -1.296000   -1.226780
  H    -1.676924    2.206332    0.069330
  H    -1.458520    1.148353   -1.339504
  H    -3.076684    1.752687   -0.896370
  H    -0.052506   -1.251526   -1.057879
  H    -2.674595   -1.953057    1.131350
  H     0.302299   -2.270201    1.426661
  H    -0.665327   -0.694487    3.260100
  H     1.844219    0.713103    1.000870
  H     0.417715    1.706014    0.666960
  H     2.373265    1.327840   -3.252572
  H     3.592888   -1.555263   -1.391256

----------------------------
CARTESIAN COORDINATES (A.U.)
----------------------------
  NO LB    ZA    FRAG    MASS        X           Y           Z
   0 C   6.0000    0    12.011   -4.004935    2.656163   -0.976948
   1 C   6.0000    0    12.011   -4.441839    0.433538    0.698899
   2 O   8.0000    0    15.999   -6.349315    0.094351    1.879513
   3 C   6.0000    0    12.011   -2.363084   -1.594876    0.805992
   4 O   8.0000    0    15.999   -1.886676   -2.446526   -1.642522
   5 O   8.0000    0    15.999   -3.234975   -3.629957    2.284259
   6 C   6.0000    0    12.011    0.053578   -0.702824    2.231229
   7 O   8.0000    0    15.999    1.639480   -2.817025    2.527621
   8 C   6.0000    0    12.011   -0.798038    0.217930    4.831655
   9 O   8.0000    0    15.999   -1.041271    2.387742    5.386608
  10 C   6.0000    0    12.011    1.635668    1.363047    0.973996
  11 O   8.0000    0    15.999    1.933637    0.954730   -1.655681
  12 P  15.0000    0    30.974    4.739381    0.505044   -2.668502
[...]
     68       0.000538  -0.003975  -0.000461   0.001306  -0.000739  -0.000408
     69      -0.008384   0.014595  -0.003031   0.002424   0.000463   0.002050
     70       0.000785  -0.026468  -0.000111  -0.000156   0.000239   0.001301
     71      -0.004542   0.000644  -0.001594   0.001003   0.000290   0.001685
     72       0.047432  -0.630162   0.012884  -0.000660  -0.000093  -0.000819
     73      -0.054080   0.766924  -0.014745  -0.002227   0.000505   0.001142
     74       0.004865  -0.045982   0.001038   0.000018   0.000076   0.000464
     75       0.000012   0.000291   0.000030  -0.000018   0.000658   0.000922
     76      -0.000023   0.000265   0.000159  -0.000113   0.000876   0.001320
     77      -0.000052   0.000262   0.000032   0.000080   0.000113   0.000100
     78       0.000016   0.000593   0.000060  -0.000033  -0.000163   0.000527
     79      -0.000026  -0.000180  -0.000055   0.000018  -0.000133  -0.000354
     80      -0.000073   0.000879   0.000069   0.000106   0.000332   0.002956
                 78         79         80    
      0      -0.000159   0.000011  -0.000015
      1       0.000022  -0.000001   0.000001
      2       0.000306   0.000001   0.000008
      3       0.000408  -0.000064   0.000067
      4      -0.000019   0.000001  -0.000006
      5      -0.000109   0.000033  -0.000028
      6      -0.000157   0.000020  -0.000013
      7      -0.000079   0.000010  -0.000013
      8       0.000031  -0.000020   0.000016
      9       0.000939  -0.000030   0.000005
     10      -0.000443  -0.000002   0.000040
     11      -0.002532   0.000041   0.000019
     12       0.053426   0.001045  -0.000169
     13      -0.027203  -0.000530   0.000062
     14      -0.014618  -0.000297   0.000029
     15      -0.000485  -0.000015  -0.000068
     16      -0.000301   0.000021  -0.000024
     17       0.000462  -0.000017   0.000020
     18      -0.000335  -0.000056   0.000023
     19       0.000412   0.000057  -0.000021
     20       0.000316   0.000062   0.000026
     21       0.001019   0.000013  -0.000089
     22       0.001417   0.000196  -0.000085
     23      -0.000403  -0.000193   0.000011
     24       0.000312  -0.000016   0.000026
     25      -0.000171   0.000018  -0.000064
     26      -0.000391   0.000089  -0.000083
     27      -0.000119   0.000016  -0.000023
     28       0.000165  -0.000027   0.000046
     29       0.000074  -0.000020   0.000018
     30      -0.000234  -0.000185   0.000090
     31      -0.000015   0.000156  -0.000075
     32       0.000152   0.000252  -0.000234
     33       0.000436   0.000296  -0.000268
     34      -0.000172  -0.000409   0.000100
     35      -0.000118  -0.000153   0.000342
     36       0.000044  -0.000084   0.000202
     37       0.000836   0.000393   0.000285
     38       0.000220  -0.000120   0.000105
     39      -0.000046  -0.000225   0.000114
     40      -0.000263  -0.000138   0.000003
     41      -0.000182  -0.000179   0.000320
     42       0.000086   0.001857   0.035620
     43      -0.000142   0.002565   0.051179
     44       0.000033   0.000057  -0.003663
     45       0.000166  -0.030784   0.001468
     46      -0.001493   0.040428  -0.002558
     47       0.000560  -0.036107   0.001921
     48       0.000600  -0.000073   0.000097
     49       0.000461  -0.000024  -0.000000
     50       0.000600  -0.000018   0.000005
     51       0.003143   0.000062   0.000116
     52       0.000355   0.000025   0.000039
     53      -0.004884  -0.000099  -0.000106
     54      -0.002401   0.000060  -0.000106
     55       0.000468  -0.000045   0.000013
     56      -0.000504   0.000075  -0.000044
     57      -0.858439  -0.018048   0.002606
     58       0.435537   0.008952  -0.000966
     59       0.261024   0.003773  -0.000342
     60       0.009716   0.000272   0.000877
     61       0.001597  -0.000217   0.000165
     62      -0.003515   0.000068  -0.000301
     63      -0.014874   0.000075   0.000931
     64      -0.024826  -0.002977   0.001602
     65       0.003357   0.001020  -0.000180
     66      -0.000716  -0.000087   0.000104
     67      -0.001015   0.000164  -0.000160
     68       0.000723  -0.000314   0.000339
     69      -0.000045  -0.000195   0.000316
     70       0.000538   0.000212  -0.000068
     71      -0.000012   0.000086  -0.000072
     72       0.001360   0.000575  -0.000254
     73      -0.001559  -0.000647   0.000307
     74      -0.000198   0.000026   0.000138
     75      -0.001202  -0.031223  -0.567026
     76      -0.001407  -0.045932  -0.818055
     77      -0.000172   0.002151   0.047880
     78      -0.011867   0.496083  -0.026700
     79       0.012246  -0.642789   0.036710
     80      -0.011500   0.577327  -0.031424


-----------
IR SPECTRUM
-----------

 Mode   freq       eps      Int      T**2         TX        TY        TZ
       cm**-1   L/(mol*cm) km/mol    a.u.
----------------------------------------------------------------------------
  6:     29.92   0.000689    3.48  0.007186  ( 0.050488  0.053200 -0.042505)
  7:     54.49   0.000127    0.64  0.000726  ( 0.003895 -0.011448  0.024088)
  8:     71.85   0.001167    5.90  0.005068  ( 0.058337  0.019335 -0.035927)
  9:     79.55   0.000788    3.98  0.003091  ( 0.041538  0.018621  0.031922)
 10:     90.04   0.001847    9.34  0.006402  (-0.044318 -0.044755 -0.049349)
 11:    119.40   0.000621    3.14  0.001623  ( 0.037954 -0.009682  0.009412)
 12:    138.28   0.001174    5.93  0.002648  (-0.043925 -0.011749 -0.024102)
 13:    162.28   0.000950    4.80  0.001827  (-0.027025  0.023331  0.023510)
 14:    176.04   0.004283   21.64  0.007592  ( 0.079107 -0.029651  0.021323)
 15:    188.67   0.002678   13.53  0.004430  ( 0.009157 -0.019685 -0.062915)
 16:    194.59   0.022977  116.12  0.036849  (-0.150577  0.095496  0.071105)
 17:    205.39   0.010388   52.50  0.015783  ( 0.100118 -0.042350 -0.062977)
 18:    222.49   0.011825   59.76  0.016585  (-0.026610  0.015451 -0.125053)
 19:    238.12   0.009475   47.89  0.012418  (-0.045322  0.100967 -0.013023)
 20:    253.82   0.001563    7.90  0.001922  (-0.019074 -0.034363 -0.019421)
 21:    284.63   0.003443   17.40  0.003775  (-0.053261  0.015368  0.026506)
 22:    294.90   0.003978   20.10  0.004209  (-0.034599  0.043935 -0.032893)
 23:    333.66   0.005280   26.69  0.004939  (-0.020257 -0.048760  0.046377)
 24:    350.79   0.003374   17.05  0.003002  ( 0.026647 -0.038941  0.027845)
 25:    366.26   0.003095   15.64  0.002637  ( 0.022548  0.042439 -0.018102)
 26:    370.52   0.014183   71.67  0.011945  ( 0.053954 -0.025191 -0.091648)
 27:    396.98   0.018134   91.64  0.014255  (-0.110156  0.036488  0.028098)
 28:    418.34   0.011443   57.83  0.008536  ( 0.056628  0.072648 -0.007163)
 29:    424.05   0.001812    9.16  0.001333  (-0.015842 -0.009449  0.031511)
 30:    449.42   0.006609   33.40  0.004589  (-0.017506  0.048796  0.043608)
 31:    472.23   0.010662   53.88  0.007046  ( 0.075592  0.030925 -0.019375)
 32:    485.69   0.002941   14.86  0.001890  ( 0.004995 -0.039083  0.018364)
 33:    495.69   0.015818   79.94  0.009958  (-0.011080  0.012714  0.098355)
 34:    542.00   0.045194  228.39  0.026021  (-0.066593 -0.124685 -0.077720)
 35:    554.24   0.000410    2.07  0.000231  (-0.006991 -0.013434 -0.001328)
 36:    585.43   0.007141   36.09  0.003807  (-0.026182  0.000903  0.055859)
 37:    590.84   0.001244    6.28  0.000657  ( 0.007440  0.000523 -0.024519)
 38:    650.20   0.015896   80.33  0.007629  ( 0.035992 -0.040219  0.068676)
 39:    703.43   0.001966    9.94  0.000872  ( 0.018947  0.000629  0.022647)
 40:    739.44   0.025468  128.70  0.010748  (-0.087685  0.043810  0.033763)
 41:    808.89   0.031766  160.53  0.012255  ( 0.047526 -0.094592 -0.032383)
 42:    850.18   0.068710  347.23  0.025220  ( 0.083889  0.071441 -0.114363)
 43:    864.43   0.014154   71.53  0.005110  (-0.036249 -0.061497 -0.003740)
 44:    884.34   0.028599  144.53  0.010092  ( 0.049486 -0.041473 -0.076961)
 45:    890.25   0.005253   26.54  0.001841  ( 0.017254  0.036867 -0.013578)
 46:    933.16   0.064566  326.29  0.021592  (-0.030150 -0.102594 -0.100783)
 47:    943.92   0.005439   27.48  0.001798  ( 0.037659 -0.018348  0.006574)
 48:    981.43   0.017958   90.75  0.005710  ( 0.037608  0.027600  0.059446)
 49:   1014.80   0.004369   22.08  0.001343  ( 0.002507 -0.028672  0.022694)
 50:   1039.51   0.007162   36.19  0.002150  ( 0.015514 -0.042468 -0.010289)
 51:   1046.68   0.016432   83.04  0.004899  (-0.008272 -0.061609 -0.032173)
 52:   1088.35   0.006686   33.79  0.001917  (-0.033940 -0.026965  0.006171)
 53:   1108.59   0.013425   67.84  0.003779  (-0.050808  0.034607 -0.000144)
 54:   1127.25   0.058612  296.20  0.016226  (-0.011611 -0.029912  0.123274)
 55:   1163.52   0.048298  244.08  0.012954  (-0.090829  0.068499  0.003435)
 56:   1170.57   0.023095  116.71  0.006157  (-0.018146  0.000134  0.076339)
 57:   1217.29   0.024534  123.98  0.006289  (-0.001230  0.075871  0.023056)
 58:   1232.59   0.001534    7.75  0.000388  (-0.000705  0.017694  0.008650)
 59:   1277.61   0.060705  306.78  0.014828  (-0.076753 -0.035702 -0.087533)
 60:   1293.27   0.043849  221.60  0.010581  ( 0.093520 -0.024697  0.034995)
 61:   1317.04   0.034252  173.09  0.008116  ( 0.025167 -0.060706  0.061621)
 62:   1333.44   0.002538   12.82  0.000594  (-0.011792 -0.003408 -0.021053)
 63:   1344.33   0.002741   13.85  0.000636  (-0.006785  0.016058  0.018232)
 64:   1351.81   0.009097   45.97  0.002100  ( 0.006349 -0.044665 -0.008038)
 65:   1411.93   0.003723   18.81  0.000823  ( 0.026378  0.009318 -0.006341)
 66:   1431.10   0.009336   47.18  0.002036  (-0.012490  0.032238  0.028993)
 67:   1437.50   0.005866   29.65  0.001273  (-0.030862  0.004446 -0.017357)
 68:   1769.89   0.053848  272.13  0.009494  (-0.056768 -0.072815  0.031142)
 69:   1783.73   0.047314  239.10  0.008278  ( 0.054767 -0.043063 -0.058513)
 70:   2808.04   0.012530   63.32  0.001392  (-0.009544  0.027855 -0.022924)
 71:   2930.59   0.003470   17.53  0.000369  (-0.001580 -0.008811 -0.017009)
 72:   3000.82   0.000891    4.50  0.000093  (-0.000871  0.007680 -0.005737)
 73:   3004.42   0.003218   16.26  0.000334  ( 0.011231 -0.012259 -0.007603)
 74:   3043.14   0.001383    6.99  0.000142  (-0.002007 -0.006125  0.010016)
 75:   3061.94   0.001941    9.81  0.000198  ( 0.003540 -0.011706  0.006945)
 76:   3301.54   0.020152  101.84  0.001905  ( 0.043418 -0.004004 -0.001903)
 77:   3388.59   0.017304   87.45  0.001594  ( 0.020734  0.032107  0.011524)
 78:   3416.42   0.041207  208.24  0.003764  (-0.060081  0.010782  0.006159)
 79:   3617.95   0.014900   75.30  0.001285  ( 0.025211 -0.023451  0.009982)
 80:   3635.60   0.018686   94.43  0.001604  (-0.022745 -0.025555  0.020821)

* The epsilon (eps) is given for a Dirac delta lineshape.
** The dipole moment derivative (T) already includes vibrational overlap.

The first frequency considered to be a vibration is 6
The total number of vibrations considered is 75


--------------------------
THERMOCHEMISTRY AT 298.15K
--------------------------

Temperature         ... 298.15 K
Pressure            ... 1.00 atm
Total Mass          ... 258.12 AMU

Throughout the following assumptions are being made:
  (1) The electronic state is orbitally nondegenerate
  (2) There are no thermally accessible electronically excited states
  (3) Hindered rotations indicated by low frequency modes are not
      treated as such but are treated as vibrations and this may
      cause some error
  (4) All equations used are the standard statistical mechanics
      equations for an ideal gas
  (5) All vibrations are strictly harmonic

freq.      29.92  E(vib)   ...       0.55 
freq.      54.49  E(vib)   ...       0.52 
freq.      71.85  E(vib)   ...       0.50 
freq.      79.55  E(vib)   ...       0.49 
freq.      90.04  E(vib)   ...       0.47 
freq.     119.40  E(vib)   ...       0.44 
freq.     138.28  E(vib)   ...       0.42 
freq.     162.28  E(vib)   ...       0.39 
freq.     176.04  E(vib)   ...       0.38 
freq.     188.67  E(vib)   ...       0.36 
freq.     194.59  E(vib)   ...       0.36 
freq.     205.39  E(vib)   ...       0.35 
freq.     222.49  E(vib)   ...       0.33 
freq.     238.12  E(vib)   ...       0.32 
freq.     253.82  E(vib)   ...       0.30 
freq.     284.63  E(vib)   ...       0.28 
freq.     294.90  E(vib)   ...       0.27 
freq.     333.66  E(vib)   ...       0.24 
freq.     350.79  E(vib)   ...       0.23 
freq.     366.26  E(vib)   ...       0.22 
freq.     370.52  E(vib)   ...       0.21 
freq.     396.98  E(vib)   ...       0.20 
freq.     418.34  E(vib)   ...       0.18 
freq.     424.05  E(vib)   ...       0.18 
freq.     449.42  E(vib)   ...       0.17 
freq.     472.23  E(vib)   ...       0.15 
freq.     485.69  E(vib)   ...       0.15 
freq.     495.69  E(vib)   ...       0.14 
freq.     542.00  E(vib)   ...       0.12 
freq.     554.24  E(vib)   ...       0.12 
freq.     585.43  E(vib)   ...       0.11 
freq.     590.84  E(vib)   ...       0.10 
freq.     650.20  E(vib)   ...       0.08 
freq.     703.43  E(vib)   ...       0.07 
freq.     739.44  E(vib)   ...       0.06 
freq.     808.89  E(vib)   ...       0.05 
freq.     850.18  E(vib)   ...       0.04 
freq.     864.43  E(vib)   ...       0.04 
freq.     884.34  E(vib)   ...       0.04 
freq.     890.25  E(vib)   ...       0.04 
freq.     933.16  E(vib)   ...       0.03 
freq.     943.92  E(vib)   ...       0.03 
freq.     981.43  E(vib)   ...       0.02 
freq.    1014.80  E(vib)   ...       0.02 
freq.    1039.51  E(vib)   ...       0.02 
freq.    1046.68  E(vib)   ...       0.02 
freq.    1088.35  E(vib)   ...       0.02 
freq.    1108.59  E(vib)   ...       0.02 
freq.    1127.25  E(vib)   ...       0.01 
freq.    1163.52  E(vib)   ...       0.01 
freq.    1170.57  E(vib)   ...       0.01 
freq.    1217.29  E(vib)   ...       0.01 
freq.    1232.59  E(vib)   ...       0.01 
freq.    1277.61  E(vib)   ...       0.01 
freq.    1293.27  E(vib)   ...       0.01 
freq.    1317.04  E(vib)   ...       0.01 
freq.    1333.44  E(vib)   ...       0.01 
freq.    1344.33  E(vib)   ...       0.01 
freq.    1351.81  E(vib)   ...       0.01 
freq.    1411.93  E(vib)   ...       0.00 
freq.    1431.10  E(vib)   ...       0.00 
freq.    1437.50  E(vib)   ...       0.00 
freq.    1769.89  E(vib)   ...       0.00 
freq.    1783.73  E(vib)   ...       0.00 
freq.    2808.04  E(vib)   ...       0.00 
freq.    2930.59  E(vib)   ...       0.00 
freq.    3000.82  E(vib)   ...       0.00 
freq.    3004.42  E(vib)   ...       0.00 
freq.    3043.14  E(vib)   ...       0.00 
freq.    3061.94  E(vib)   ...       0.00 
freq.    3301.54  E(vib)   ...       0.00 
freq.    3388.59  E(vib)   ...       0.00 
freq.    3416.42  E(vib)   ...       0.00 
freq.    3617.95  E(vib)   ...       0.00 
freq.    3635.60  E(vib)   ...       0.00 

------------
INNER ENERGY
------------

The inner energy is: U= E(el) + E(ZPE) + E(vib) + E(rot) + E(trans)
    E(el)   - is the total energy from the electronic structure calculation
              = E(kin-el) + E(nuc-el) + E(el-el) + E(nuc-nuc)
    E(ZPE)  - the the zero temperature vibrational energy from the frequency calculation
    E(vib)  - the the finite temperature correction to E(ZPE) due to population
              of excited vibrational states
    E(rot)  - is the rotational thermal energy
    E(trans)- is the translational thermal energy

Summary of contributions to the inner energy U:
Electronic energy                ...    -57.69719794 Eh
Zero point energy                ...      0.18466851 Eh     115.88 kcal/mol
Thermal vibrational correction   ...      0.01580027 Eh       9.91 kcal/mol
Thermal rotational correction    ...      0.00141627 Eh       0.89 kcal/mol
Thermal translational correction ...      0.00141627 Eh       0.89 kcal/mol
-----------------------------------------------------------------------
Total thermal energy                    -57.49389662 Eh


Summary of corrections to the electronic energy:
(perhaps to be used in another calculation)
Total thermal correction                  0.01863281 Eh      11.69 kcal/mol
Non-thermal (ZPE) correction              0.18466851 Eh     115.88 kcal/mol
-----------------------------------------------------------------------
Total correction                          0.20330132 Eh     127.57 kcal/mol


--------
ENTHALPY
--------

The enthalpy is H = U + kB*T
                kB is Boltzmann's constant
Total free energy                 ...    -57.49389662 Eh 
Thermal Enthalpy correction       ...      0.00094421 Eh       0.59 kcal/mol
-----------------------------------------------------------------------
Total Enthalpy                    ...    -57.49295241 Eh


Note: Only C1 symmetry has been detected, increase convergence thresholds 
      if your molecule has a higher symmetry. Symmetry factor of 1.0 is   
      used for the rotational entropy correction. 
 

Note: Rotational entropy computed according to Herzberg 
Infrared and Raman Spectra, Chapter V,1, Van Nostrand Reinhold, 1945 
Point Group:  C1, Symmetry Number:   1  
Rotational constants in cm-1:     0.031226     0.011245     0.010771 

Vibrational entropy computed according to the QRRHO of S. Grimme
Chem.Eur.J. 2012 18 9955


-------
ENTROPY
-------

The entropy contributions are T*S = T*(S(el)+S(vib)+S(rot)+S(trans))
     S(el)   - electronic entropy
     S(vib)  - vibrational entropy
     S(rot)  - rotational entropy
     S(trans)- translational entropy
The entropies will be listed as multiplied by the temperature to get
units of energy

Electronic entropy                ...      0.00000000 Eh      0.00 kcal/mol
Vibrational entropy               ...      0.02769475 Eh     17.38 kcal/mol
Rotational entropy                ...      0.01540499 Eh      9.67 kcal/mol
Translational entropy             ...      0.02021422 Eh     12.68 kcal/mol
-----------------------------------------------------------------------
Final entropy term                ...      0.06331396 Eh     39.73 kcal/mol

In case the symmetry of your molecule has not been determined correctly
or in case you have a reason to use a different symmetry number we print 
out the resulting rotational entropy values for sn=1,12 :
 --------------------------------------------------------
|  sn= 1 | S(rot)=       0.01540499 Eh      9.67 kcal/mol|
|  sn= 2 | S(rot)=       0.01475053 Eh      9.26 kcal/mol|
|  sn= 3 | S(rot)=       0.01436770 Eh      9.02 kcal/mol|
|  sn= 4 | S(rot)=       0.01409608 Eh      8.85 kcal/mol|
|  sn= 5 | S(rot)=       0.01388539 Eh      8.71 kcal/mol|
|  sn= 6 | S(rot)=       0.01371325 Eh      8.61 kcal/mol|
|  sn= 7 | S(rot)=       0.01356770 Eh      8.51 kcal/mol|
|  sn= 8 | S(rot)=       0.01344162 Eh      8.43 kcal/mol|
|  sn= 9 | S(rot)=       0.01333041 Eh      8.36 kcal/mol|
|  sn=10 | S(rot)=       0.01323093 Eh      8.30 kcal/mol|
|  sn=11 | S(rot)=       0.01314094 Eh      8.25 kcal/mol|
|  sn=12 | S(rot)=       0.01305879 Eh      8.19 kcal/mol|
 --------------------------------------------------------


-------------------
GIBBS FREE ENERGY
-------------------

The Gibbs free energy is G = H - T*S

Total enthalpy                    ...    -57.49295241 Eh 
Total entropy correction          ...     -0.06331396 Eh    -39.73 kcal/mol
-----------------------------------------------------------------------
Final Gibbs free energy         ...    -57.55626638 Eh

For completeness - the Gibbs free energy minus the electronic energy
G-E(el)                           ...      0.14093157 Eh     88.44 kcal/mol



Timings for individual modules:

Sum of individual times         ...      397.965 sec (=   6.633 min)
Geometry relaxation             ...        1.073 sec (=   0.018 min)   0.3 %
Numerical frequency calculation ...      395.822 sec (=   6.597 min)  99.5 %
XTB module                      ...        1.069 sec (=   0.018 min)   0.3 %
                             ****ORCA TERMINATED NORMALLY****
TOTAL RUN TIME: 0 days 0 hours 6 minutes 38 seconds 867 msec
