
                                 *****************
                                 * O   R   C   A *
                                 *****************

                                            #,                                       
                                            ###                                      
                                            ####                                     
                                            #####                                    
                                            ######                                   
                                           ########,                                 
                                     ,,################,,,,,                         
                               ,,#################################,,                 
                          ,,##########################################,,             
                       ,#########################################, ''#####,          
                    ,#############################################,,   '####,        
                  ,##################################################,,,,####,       
                ,###########''''           ''''###############################       
              ,#####''   ,,,,##########,,,,          '''####'''          '####       
            ,##' ,,,,###########################,,,                        '##       
           ' ,,###''''                  '''############,,,                           
         ,,##''                                '''############,,,,        ,,,,,,###''
      ,#''                                            '''#######################'''  
     '                                                          ''''####''''         
             ,#######,   #######,   ,#######,      ##                                
            ,#'     '#,  ##    ##  ,#'     '#,    #''#        ######   ,####,        
            ##       ##  ##   ,#'  ##            #'  '#       #        #'  '#        
            ##       ##  #######   ##           ,######,      #####,   #    #        
            '#,     ,#'  ##    ##  '#,     ,#' ,#      #,         ##   #,  ,#        
             '#######'   ##     ##  '#######'  #'      '#     #####' # '####'        



                  #######################################################
                  #                        -***-                        #
                  #          Department of theory and spectroscopy      #
                  #    Directorship and core code : Frank Neese         #
                  #        Max Planck Institute fuer Kohlenforschung    #
                  #                Kaiser Wilhelm Platz 1               #
                  #                 D-45470 Muelheim/Ruhr               #
                  #                      Germany                        #
                  #                                                     #
                  #                  All rights reserved                #
                  #                        -***-                        #
                  #######################################################


                         Program Version 5.0.3 -  RELEASE  -


 With contributions from (in alphabetic order):
   Daniel Aravena         : Magnetic Suceptibility
   Michael Atanasov       : Ab Initio Ligand Field Theory (pilot matlab implementation)
   Alexander A. Auer      : GIAO ZORA, VPT2 properties, NMR spectrum
   Ute Becker             : Parallelization
   Giovanni Bistoni       : ED, misc. LED, open-shell LED, HFLD
   Martin Brehm           : Molecular dynamics
   Dmytro Bykov           : SCF Hessian
   Vijay G. Chilkuri      : MRCI spin determinant printing, contributions to CSF-ICE
   Dipayan Datta          : RHF DLPNO-CCSD density
   Achintya Kumar Dutta   : EOM-CC, STEOM-CC
   Dmitry Ganyushin       : Spin-Orbit,Spin-Spin,Magnetic field MRCI
   Miquel Garcia          : C-PCM and meta-GGA Hessian, CC/C-PCM, Gaussian charge scheme
   Yang Guo               : DLPNO-NEVPT2, F12-NEVPT2, CIM, IAO-localization
   Andreas Hansen         : Spin unrestricted coupled pair/coupled cluster methods
   Benjamin Helmich-Paris : MC-RPA, TRAH-SCF, COSX integrals
   Lee Huntington         : MR-EOM, pCC
   Robert Izsak           : Overlap fitted RIJCOSX, COSX-SCS-MP3, EOM
   Marcus Kettner         : VPT2
   Christian Kollmar      : KDIIS, OOCD, Brueckner-CCSD(T), CCSD density, CASPT2, CASPT2-K
   Simone Kossmann        : Meta GGA functionals, TD-DFT gradient, OOMP2, MP2 Hessian
   Martin Krupicka        : Initial AUTO-CI
   Lucas Lang             : DCDCAS
   Marvin Lechner         : AUTO-CI (C++ implementation), FIC-MRCC
   Dagmar Lenk            : GEPOL surface, SMD
   Dimitrios Liakos       : Extrapolation schemes; Compound Job, initial MDCI parallelization
   Dimitrios Manganas     : Further ROCIS development; embedding schemes
   Dimitrios Pantazis     : SARC Basis sets
   Anastasios Papadopoulos: AUTO-CI, single reference methods and gradients
   Taras Petrenko         : DFT Hessian,TD-DFT gradient, ASA, ECA, R-Raman, ABS, FL, XAS/XES, NRVS
   Peter Pinski           : DLPNO-MP2, DLPNO-MP2 Gradient
   Christoph Reimann      : Effective Core Potentials
   Marius Retegan         : Local ZFS, SOC
   Christoph Riplinger    : Optimizer, TS searches, QM/MM, DLPNO-CCSD(T), (RO)-DLPNO pert. Triples
   Tobias Risthaus        : Range-separated hybrids, TD-DFT gradient, RPA, STAB
   Michael Roemelt        : Original ROCIS implementation
   Masaaki Saitow         : Open-shell DLPNO-CCSD energy and density
   Barbara Sandhoefer     : DKH picture change effects
   Avijit Sen             : IP-ROCIS
   Kantharuban Sivalingam : CASSCF convergence, NEVPT2, FIC-MRCI
   Bernardo de Souza      : ESD, SOC TD-DFT
   Georgi Stoychev        : AutoAux, RI-MP2 NMR, DLPNO-MP2 response
   Willem Van den Heuvel  : Paramagnetic NMR
   Boris Wezisla          : Elementary symmetry handling
   Frank Wennmohs         : Technical directorship


 We gratefully acknowledge several colleagues who have allowed us to
 interface, adapt or use parts of their codes:
   Stefan Grimme, W. Hujo, H. Kruse, P. Pracht,  : VdW corrections, initial TS optimization,
                  C. Bannwarth, S. Ehlert          DFT functionals, gCP, sTDA/sTD-DF
   Ed Valeev, F. Pavosevic, A. Kumar             : LibInt (2-el integral package), F12 methods
   Garnet Chan, S. Sharma, J. Yang, R. Olivares  : DMRG
   Ulf Ekstrom                                   : XCFun DFT Library
   Mihaly Kallay                                 : mrcc  (arbitrary order and MRCC methods)
   Jiri Pittner, Ondrej Demel                    : Mk-CCSD
   Frank Weinhold                                : gennbo (NPA and NBO analysis)
   Christopher J. Cramer and Donald G. Truhlar   : smd solvation model
   Lars Goerigk                                  : TD-DFT with DH, B97 family of functionals
   V. Asgeirsson, H. Jonsson                     : NEB implementation
   FAccTs GmbH                                   : IRC, NEB, NEB-TS, DLPNO-Multilevel, CI-OPT
                                                   MM, QMMM, 2- and 3-layer-ONIOM, Crystal-QMMM,
                                                   LR-CPCM, SF, NACMEs, symmetry and pop. for TD-DFT,
                                                   nearIR, NL-DFT gradient (VV10), updates on ESD,
                                                   ML-optimized integration grids
   S Lehtola, MJT Oliveira, MAL Marques          : LibXC Library
   Liviu Ungur et al                             : ANISO software


 Your calculation uses the libint2 library for the computation of 2-el integrals
 For citations please refer to: http://libint.valeyev.net

 Your ORCA version has been built with support for libXC version: 5.1.0
 For citations please refer to: https://tddft.org/programs/libxc/

 This ORCA versions uses:
   CBLAS   interface :  Fast vector & matrix operations
   LAPACKE interface :  Fast linear algebra routines
   SCALAPACK package :  Parallel linear algebra routines
   Shared memory     :  Shared parallel matrices
   BLAS/LAPACK       :  OpenBLAS 0.3.15  USE64BITINT DYNAMIC_ARCH NO_AFFINITY Haswell SINGLE_THREADED
        Core in use  :  Haswell
   Copyright (c) 2011-2014, The OpenBLAS Project


Your calculation utilizes the semiempirical GFN2-xTB method
Please cite in your paper:
C. Bannwarth, Ehlert S., S. Grimme,  J. Chem. Theory Comput., 15, (2019), 1652.
   

================================================================================

================================================================================
                                        WARNINGS
                       Please study these warnings very carefully!
================================================================================


WARNING: Geometry Optimization
  ===> : Switching off AutoStart
         For restart on a previous wavefunction, please use MOREAD

WARNING: Found dipole moment calculation with XTB calculation
  ===> : Switching off dipole moment calculation


WARNING: TRAH-SCF for XTB is not implemented!
  ===> : Turning TRAH off!

================================================================================
                                       INPUT FILE
================================================================================
NAME = /tmp/C00022.inp
|  1> ! XTB2 opt numfreq
|  2> * xyz 0 1
|  3> C -1.439169 -.128901 -.474598
|  4> C -.308977 .480907 .326712
|  5> O -.410943 1.324177 1.194377
|  6> C 1.070627 -.096174 -.059282
|  7> O 1.211001 -1.188835 -.595836
|  8> O 2.072879 .747701 .271473
|  9> H -1.278779 -1.287249 -.583515
| 10> H -1.428811 .323566 -1.561446
| 11> H -2.395799 .131109 .052660
| 12> H 2.935399 .361499 .043940
| 13> *
| 14> 
| 15>                          ****END OF INPUT****
================================================================================

                       *****************************
                       * Geometry Optimization Run *
                       *****************************

Geometry optimization settings:
Update method            Update   .... BFGS
Choice of coordinates    CoordSys .... Z-matrix Internals
Initial Hessian          InHess   .... Almoef's Model

Convergence Tolerances:
Energy Change            TolE     ....  5.0000e-06 Eh
Max. Gradient            TolMAXG  ....  3.0000e-04 Eh/bohr
RMS Gradient             TolRMSG  ....  1.0000e-04 Eh/bohr
Max. Displacement        TolMAXD  ....  4.0000e-03 bohr
RMS Displacement         TolRMSD  ....  2.0000e-03 bohr
Strict Convergence                ....  False
------------------------------------------------------------------------------
                        ORCA OPTIMIZATION COORDINATE SETUP
------------------------------------------------------------------------------

The optimization will be done in new redundant internal coordinates
Making redundant internal coordinates   ...  (new redundants) done
Evaluating the initial hessian          ...  (Almloef) done
Evaluating the coordinates              ...  done
Calculating the B-matrix                .... done
Calculating the G-matrix                .... done
Diagonalizing the G-matrix              .... done
The first mode is                       ....   10
The number of degrees of freedom        ....   24

    -----------------------------------------------------------------
                    Redundant Internal Coordinates


    -----------------------------------------------------------------
         Definition                    Initial Value    Approx d2E/dq
    -----------------------------------------------------------------
      1. B(C   1,C   0)                  1.5137         0.396623   
      2. B(O   2,C   1)                  1.2142         1.067363   
      3. B(C   3,C   1)                  1.5444         0.354263   
      4. B(O   4,C   3)                  1.2254         1.024591   
      5. B(O   5,C   3)                  1.3513         0.645069   
      6. B(H   6,C   0)                  1.1745         0.264041   
      7. B(H   7,C   0)                  1.1773         0.261286   
      8. B(H   8,C   0)                  1.1228         0.319187   
      9. B(H   9,O   5)                  0.9720         0.497457   
     10. A(H   6,C   0,H   7)          106.9918         0.263975   
     11. A(C   1,C   0,H   7)          109.1048         0.310825   
     12. A(H   7,C   0,H   8)          110.6094         0.271650   
     13. A(C   1,C   0,H   8)          107.1128         0.321106   
     14. A(H   6,C   0,H   8)          112.8480         0.272084   
     15. A(C   1,C   0,H   6)          110.1488         0.311353   
     16. A(C   0,C   1,O   2)          126.5384         0.438783   
     17. A(O   2,C   1,C   3)          120.8706         0.429955   
     18. A(C   0,C   1,C   3)          112.5891         0.363773   
     19. A(O   4,C   3,O   5)          125.3852         0.472707   
     20. A(C   1,C   3,O   5)          111.5933         0.393225   
     21. A(C   1,C   3,O   4)          123.0213         0.426813   
     22. A(C   3,O   5,H   9)          110.6534         0.369824   
     23. D(O   2,C   1,C   0,H   6)   -137.6694         0.011684   
     24. D(C   3,C   1,C   0,H   6)     41.8160         0.011684   
     25. D(C   3,C   1,C   0,H   7)    -75.3467         0.011684   
     26. D(O   2,C   1,C   0,H   7)    105.1678         0.011684   
     27. D(O   2,C   1,C   0,H   8)    -14.5951         0.011684   
     28. D(C   3,C   1,C   0,H   8)    164.8903         0.011684   
     29. D(O   4,C   3,C   1,C   0)    -22.5758         0.008793   
     30. D(O   5,C   3,C   1,O   2)    -22.9070         0.008793   
     31. D(O   5,C   3,C   1,C   0)    157.5747         0.008793   
     32. D(O   4,C   3,C   1,O   2)    156.9425         0.008793   
     33. D(H   9,O   5,C   3,O   4)     -1.3209         0.030715   
     34. D(H   9,O   5,C   3,C   1)    178.5243         0.030715   
    -----------------------------------------------------------------

Number of atoms                         .... 10
Number of degrees of freedom            .... 34

         *************************************************************
         *                GEOMETRY OPTIMIZATION CYCLE   1            *
         *************************************************************
---------------------------------
CARTESIAN COORDINATES (ANGSTROEM)
---------------------------------
  C    -1.439169   -0.128901   -0.474598
  C    -0.308977    0.480907    0.326712
  O    -0.410943    1.324177    1.194377
  C     1.070627   -0.096174   -0.059282
  O     1.211001   -1.188835   -0.595836
  O     2.072879    0.747701    0.271473
  H    -1.278779   -1.287249   -0.583515
  H    -1.428811    0.323566   -1.561446
  H    -2.395799    0.131109    0.052660
  H     2.935399    0.361499    0.043940

----------------------------
CARTESIAN COORDINATES (A.U.)
----------------------------
  NO LB    ZA    FRAG    MASS        X           Y           Z
   0 C   6.0000    0    12.011   -2.719635   -0.243588   -0.896860
   1 C   6.0000    0    12.011   -0.583882    0.908783    0.617396
   2 O   8.0000    0    15.999   -0.776570    2.502332    2.257045
   3 C   6.0000    0    12.011    2.023192   -0.181743   -0.112027
   4 O   8.0000    0    15.999    2.288460   -2.246573   -1.125967
   5 O   8.0000    0    15.999    3.917174    1.412950    0.513010
   6 H   1.0000    0     1.008   -2.416542   -2.432548   -1.102684
   7 H   1.0000    0     1.008   -2.700061    0.611451   -2.950705
   8 H   1.0000    0     1.008   -4.527404    0.247760    0.099513
   9 H   1.0000    0     1.008    5.547100    0.683134    0.083035

      -----------------------------------------------------------      
     |                   =====================                   |     
     |                           x T B                           |     
     |                   =====================                   |     
     |                         S. Grimme                         |     
     |          Mulliken Center for Theoretical Chemistry        |     
     |                    University of Bonn                     |     
      -----------------------------------------------------------      

   * xtb version 6.5.1 (579679a) compiled by 'ehlert@majestix' on 2022-07-11

   xtb is free software: you can redistribute it and/or modify it under
   the terms of the GNU Lesser General Public License as published by
   the Free Software Foundation, either version 3 of the License, or
   (at your option) any later version.
   
   xtb is distributed in the hope that it will be useful,
   but WITHOUT ANY WARRANTY; without even the implied warranty of
   MERCHANTABILITY or FITNESS FOR A PARTICULAR PURPOSE.  See the
   GNU Lesser General Public License for more details.
   
   Cite this work as:
   * C. Bannwarth, E. Caldeweyher, S. Ehlert, A. Hansen, P. Pracht,
     J. Seibert, S. Spicher, S. Grimme, WIREs Comput. Mol. Sci., 2020, 11,
     e01493. DOI: 10.1002/wcms.1493
   
   for GFN2-xTB:
   * C. Bannwarth, S. Ehlert and S. Grimme., J. Chem. Theory Comput., 2019,
     15, 1652-1671. DOI: 10.1021/acs.jctc.8b01176
   for GFN1-xTB:
   * S. Grimme, C. Bannwarth, P. Shushkov, J. Chem. Theory Comput., 2017,
     13, 1989-2009. DOI: 10.1021/acs.jctc.7b00118
   for GFN0-xTB:
   * P. Pracht, E. Caldeweyher, S. Ehlert, S. Grimme, ChemRxiv, 2019, preprint.
     DOI: 10.26434/chemrxiv.8326202.v1
   for GFN-FF:
   * S. Spicher and S. Grimme, Angew. Chem. Int. Ed., 2020, 59, 15665-15673.
     DOI: 10.1002/anie.202004239
   
   for ALPB and GBSA implicit solvation:
   * S. Ehlert, M. Stahn, S. Spicher, S. Grimme, J. Chem. Theory Comput.,
     2021, 17, 4250-4261. DOI: 10.1021/acs.jctc.1c00471
   
   for DFT-D4:
   * E. Caldeweyher, C. Bannwarth and S. Grimme, J. Chem. Phys., 2017,
     147, 034112. DOI: 10.1063/1.4993215
   * E. Caldeweyher, S. Ehlert, A. Hansen, H. Neugebauer, S. Spicher,
     C. Bannwarth and S. Grimme, J. Chem. Phys., 2019, 150, 154122.
     DOI: 10.1063/1.5090222
   * E. Caldeweyher, J.-M. Mewes, S. Ehlert and S. Grimme, Phys. Chem. Chem. Phys.
     2020, 22, 8499-8512. DOI: 10.1039/D0CP00502A
   
   for sTDA-xTB:
   * S. Grimme and C. Bannwarth, J. Chem. Phys., 2016, 145, 054103.
     DOI: 10.1063/1.4959605
   
   in the mass-spec context:
   * V. Asgeirsson, C. Bauer and S. Grimme, Chem. Sci., 2017, 8, 4879.
     DOI: 10.1039/c7sc00601b
   * J. Koopman and S. Grimme, ACS Omega 2019, 4, 12, 15120-15133.
     DOI: 10.1021/acsomega.9b02011
   
   for metadynamics refer to:
   * S. Grimme, J. Chem. Theory Comput., 2019, 155, 2847-2862
     DOI: 10.1021/acs.jctc.9b00143
   
   for SPH calculations refer to:
   * S. Spicher and S. Grimme, J. Chem. Theory Comput., 2021, 17, 1701-1714
     DOI: 10.1021/acs.jctc.0c01306
   
   with help from (in alphabetical order)
   P. Atkinson, C. Bannwarth, F. Bohle, G. Brandenburg, E. Caldeweyher
   M. Checinski, S. Dohm, S. Ehlert, S. Ehrlich, I. Gerasimov, C. Hölzer
   A. Katbashev, J. Koopman, C. Lavigne, S. Lehtola, F. März, M. Müller,
   F. Musil, H. Neugebauer, J. Pisarek, C. Plett, P. Pracht, F. Pultar,
   J. Seibert, P. Shushkov, S. Spicher, M. Stahn, M. Steiner, T. Strunk,
   J. Stückrath, T. Rose, and J. Unsleber
   
 * started run on 2023/12/07 at 09:49:05.437     

           -------------------------------------------------
          |                Calculation Setup                |
           -------------------------------------------------

          program call               : otool_xtb /tmp/C00022_XTB.xyz --grad -c 0 -u 0 -P 1 --namespace /tmp/C00022 --input /tmp/C00022_XTB.input.tmp --acc 1.000000
          calculation namespace      : /tmp/C00022
          coordinate file            : /tmp/C00022_XTB.xyz
          omp threads                :                     1

   ID    Z sym.   atoms
    1    6 C      1, 2, 4
    2    8 O      3, 5, 6
    3    1 H      7-10

           -------------------------------------------------
          |                 G F N 2 - x T B                 |
           -------------------------------------------------

        Reference                      10.1021/acs.jctc.8b01176
      * Hamiltonian:
        H0-scaling (s, p, d)           1.850000    2.230000    2.230000
        zeta-weighting                 0.500000
      * Dispersion:
        s8                             2.700000
        a1                             0.520000
        a2                             5.000000
        s9                             5.000000
      * Repulsion:
        kExp                           1.500000    1.000000
        rExp                           1.000000
      * Coulomb:
        alpha                          2.000000
        third order                    shell-resolved
        anisotropic                    true
        a3                             3.000000
        a5                             4.000000
        cn-shift                       1.200000
        cn-exp                         4.000000
        max-rad                        5.000000

q/qsh data taken from xtbrestart
CAMM data taken from xtbrestart

          ...................................................
          :                      SETUP                      :
          :.................................................:
          :  # basis functions                  28          :
          :  # atomic orbitals                  28          :
          :  # shells                           16          :
          :  # electrons                        34          :
          :  max. iterations                   250          :
          :  Hamiltonian                  GFN2-xTB          :
          :  restarted?                       true          :
          :  GBSA solvation                  false          :
          :  PC potential                    false          :
          :  electronic temp.          300.0000000     K    :
          :  accuracy                    1.0000000          :
          :  -> integral cutoff          0.2500000E+02      :
          :  -> integral neglect         0.1000000E-07      :
          :  -> SCF convergence          0.1000000E-05 Eh   :
          :  -> wf. convergence          0.1000000E-03 e    :
          :  Broyden damping             0.4000000          :
          ...................................................

 iter      E             dE          RMSdq      gap      omega  full diag
   1    -20.7793489 -0.207793E+02  0.144E+00    2.52       0.0  T
   2    -20.7797606 -0.411694E-03  0.838E-01    2.55       1.0  T
   3    -20.7796644  0.961848E-04  0.178E-01    2.53       1.0  T
   4    -20.7798323 -0.167896E-03  0.374E-02    2.54       1.0  T
   5    -20.7798352 -0.291948E-05  0.214E-02    2.54       1.5  T
   6    -20.7798356 -0.343345E-06  0.629E-03    2.54       5.0  T
   7    -20.7798356 -0.395914E-07  0.223E-03    2.54      14.2  T
   8    -20.7798356 -0.203213E-07  0.902E-04    2.54      35.0  T
   9    -20.7798356 -0.150616E-08  0.277E-04    2.54     114.3  T

   *** convergence criteria satisfied after 9 iterations ***

         #    Occupation            Energy/Eh            Energy/eV
      -------------------------------------------------------------
         1        2.0000           -0.7647874             -20.8109
       ...           ...                  ...                  ...
        11        2.0000           -0.5458250             -14.8527
        12        2.0000           -0.5276919             -14.3592
        13        2.0000           -0.4991614             -13.5829
        14        2.0000           -0.4918142             -13.3829
        15        2.0000           -0.4870493             -13.2533
        16        2.0000           -0.4760530             -12.9541
        17        2.0000           -0.4147967             -11.2872 (HOMO)
        18                         -0.3214784              -8.7479 (LUMO)
        19                         -0.2259218              -6.1476
        20                         -0.0006162              -0.0168
        21                          0.0276658               0.7528
        22                          0.0755982               2.0571
       ...                                ...                  ...
        28                          0.6323512              17.2072
      -------------------------------------------------------------
                  HL-Gap            0.0933183 Eh            2.5393 eV
             Fermi-level           -0.3681376 Eh          -10.0175 eV

 SCC (total)                   0 d,  0 h,  0 min,  0.005 sec
 SCC setup                      ...        0 min,  0.000 sec (  2.118%)
 Dispersion                     ...        0 min,  0.000 sec (  1.059%)
 classical contributions        ...        0 min,  0.000 sec (  0.383%)
 integral evaluation            ...        0 min,  0.001 sec ( 15.518%)
 iterations                     ...        0 min,  0.002 sec ( 42.402%)
 molecular gradient             ...        0 min,  0.002 sec ( 36.484%)
 printout                       ...        0 min,  0.000 sec (  1.791%)

         :::::::::::::::::::::::::::::::::::::::::::::::::::::
         ::                     SUMMARY                     ::
         :::::::::::::::::::::::::::::::::::::::::::::::::::::
         :: total energy             -20.628106431456 Eh    ::
         :: gradient norm              0.089253495511 Eh/a0 ::
         :: HOMO-LUMO gap              2.539321483881 eV    ::
         ::.................................................::
         :: SCC energy               -20.779835612189 Eh    ::
         :: -> isotropic ES            0.063766002246 Eh    ::
         :: -> anisotropic ES          0.003044884590 Eh    ::
         :: -> anisotropic XC          0.001724893131 Eh    ::
         :: -> dispersion             -0.004986337760 Eh    ::
         :: repulsion energy           0.151726544951 Eh    ::
         :: add. restraining           0.000000000000 Eh    ::
         :: total charge              -0.000000000000 e     ::
         :::::::::::::::::::::::::::::::::::::::::::::::::::::


Property printout bound to 'properties.out'

           -------------------------------------------------
          | TOTAL ENERGY              -20.628106431456 Eh   |
          | GRADIENT NORM               0.089253495511 Eh/α |
          | HOMO-LUMO GAP               2.539321483881 eV   |
           -------------------------------------------------

------------------------------------------------------------------------
 * finished run on 2023/12/07 at 09:49:05.450     
------------------------------------------------------------------------
 total:
 * wall-time:     0 d,  0 h,  0 min,  0.013 sec
 *  cpu-time:     0 d,  0 h,  0 min,  0.012 sec
 * ratio c/w:     0.933 speedup
 SCF:
 * wall-time:     0 d,  0 h,  0 min,  0.006 sec
 *  cpu-time:     0 d,  0 h,  0 min,  0.004 sec
 * ratio c/w:     0.717 speedup


-------------------------   --------------------
FINAL SINGLE POINT ENERGY       -20.628106431460
-------------------------   --------------------

------------------------------------------------------------------------------
                         ORCA GEOMETRY RELAXATION STEP
------------------------------------------------------------------------------

Reading the OPT-File                    .... done
Getting information on internals        .... done
Copying old internal coords+grads       .... done
Making the new internal coordinates     .... (new redundants).... done
Validating the new internal coordinates .... (new redundants).... done
Calculating the B-matrix                .... done
Calculating the G,G- and P matrices     .... done
Transforming gradient to internals      .... done
Projecting the internal gradient        .... done
Number of atoms                         ....  10
Number of internal coordinates          ....  34
Current Energy                          ....   -20.628106431 Eh
Current gradient norm                   ....     0.089253496 Eh/bohr
Maximum allowed component of the step   ....  0.300
Current trust radius                    ....  0.300
Evaluating the initial hessian          ....  (Almloef) done
Projecting the Hessian                  .... done
Forming the augmented Hessian           .... done
Diagonalizing the augmented Hessian     .... done
Last element of RFO vector              ....  0.971473064
Lowest eigenvalues of augmented Hessian:
 -0.019285939  0.008798914  0.010621591  0.011684032  0.016377013
Length of the computed step             ....  0.244113742
The final length of the internal step   ....  0.244113742
Converting the step to cartesian space:
 Initial RMS(Int)=    0.0418651613
Transforming coordinates:
 Iter   0:  RMS(Cart)=    0.0485029474 RMS(Int)=    0.0418385945
 Iter   1:  RMS(Cart)=    0.0004887528 RMS(Int)=    0.0003252964
 Iter   2:  RMS(Cart)=    0.0000195612 RMS(Int)=    0.0000165222
 Iter   3:  RMS(Cart)=    0.0000009638 RMS(Int)=    0.0000009572
 Iter   4:  RMS(Cart)=    0.0000000648 RMS(Int)=    0.0000000696
done
Storing new coordinates                 .... done

                                .--------------------.
          ----------------------|Geometry convergence|-------------------------
          Item                value                   Tolerance       Converged
          ---------------------------------------------------------------------
          RMS gradient        0.0148805997            0.0001000000      NO
          MAX gradient        0.0441567450            0.0003000000      NO
          RMS step            0.0418651613            0.0020000000      NO
          MAX step            0.1558508254            0.0040000000      NO
          ........................................................
          Max(Bonds)      0.0825      Max(Angles)    1.83
          Max(Dihed)        0.59      Max(Improp)    0.00
          ---------------------------------------------------------------------

The optimization has not yet converged - more geometry cycles are needed


    ---------------------------------------------------------------------------
                         Redundant Internal Coordinates
                            (Angstroem and degrees)

        Definition                    Value    dE/dq     Step     New-Value
    ----------------------------------------------------------------------------
     1. B(C   1,C   0)                1.5137  0.015563 -0.0198    1.4939   
     2. B(O   2,C   1)                1.2142  0.024463 -0.0119    1.2023   
     3. B(C   3,C   1)                1.5444  0.003474 -0.0049    1.5395   
     4. B(O   4,C   3)                1.2254  0.038199 -0.0194    1.2060   
     5. B(O   5,C   3)                1.3513  0.024730 -0.0197    1.3316   
     6. B(H   6,C   0)                1.1745  0.044157 -0.0825    1.0920   
     7. B(H   7,C   0)                1.1773  0.043329 -0.0817    1.0956   
     8. B(H   8,C   0)                1.1228  0.022645 -0.0354    1.0874   
     9. B(H   9,O   5)                0.9720  0.000986 -0.0010    0.9710   
    10. A(H   6,C   0,H   7)          106.99  0.000161   -0.24    106.75   
    11. A(C   1,C   0,H   7)          109.10  0.000992   -0.20    108.91   
    12. A(H   7,C   0,H   8)          110.61  0.003675   -0.57    110.03   
    13. A(C   1,C   0,H   8)          107.11 -0.010030    1.83    108.94   
    14. A(H   6,C   0,H   8)          112.85  0.003500   -0.51    112.33   
    15. A(C   1,C   0,H   6)          110.15  0.001827   -0.32    109.82   
    16. A(C   0,C   1,O   2)          126.54  0.004926   -0.64    125.90   
    17. A(O   2,C   1,C   3)          120.87 -0.001837    0.21    121.08   
    18. A(C   0,C   1,C   3)          112.59 -0.003089    0.43    113.02   
    19. A(O   4,C   3,O   5)          125.39  0.007821   -0.95    124.43   
    20. A(C   1,C   3,O   5)          111.59 -0.003924    0.50    112.09   
    21. A(C   1,C   3,O   4)          123.02 -0.003898    0.46    123.48   
    22. A(C   3,O   5,H   9)          110.65 -0.000956    0.14    110.79   
    23. D(O   2,C   1,C   0,H   6)   -137.67  0.000870   -0.15   -137.82   
    24. D(C   3,C   1,C   0,H   6)     41.82  0.000937   -0.31     41.51   
    25. D(C   3,C   1,C   0,H   7)    -75.35 -0.000899    0.29    -75.06   
    26. D(O   2,C   1,C   0,H   7)    105.17 -0.000967    0.44    105.61   
    27. D(O   2,C   1,C   0,H   8)    -14.60 -0.000135    0.19    -14.41   
    28. D(C   3,C   1,C   0,H   8)    164.89 -0.000068    0.03    164.92   
    29. D(O   4,C   3,C   1,C   0)    -22.58  0.000113   -0.27    -22.85   
    30. D(O   5,C   3,C   1,O   2)    -22.91  0.000310   -0.59    -23.50   
    31. D(O   5,C   3,C   1,C   0)    157.57  0.000207   -0.44    157.14   
    32. D(O   4,C   3,C   1,O   2)    156.94  0.000216   -0.43    156.52   
    33. D(H   9,O   5,C   3,O   4)     -1.32  0.000008   -0.03     -1.35   
    34. D(H   9,O   5,C   3,C   1)    178.52 -0.000111    0.14    178.67   
    ----------------------------------------------------------------------------

         *************************************************************
         *                GEOMETRY OPTIMIZATION CYCLE   2            *
         *************************************************************
---------------------------------
CARTESIAN COORDINATES (ANGSTROEM)
---------------------------------
  C    -1.429935   -0.126419   -0.474050
  C    -0.313573    0.473052    0.317222
  O    -0.426850    1.305564    1.177249
  C     1.065814   -0.096865   -0.060443
  O     1.220654   -1.172324   -0.583735
  O     2.055626    0.734971    0.258158
  H    -1.274219   -1.202260   -0.577765
  H    -1.413671    0.293965   -1.485652
  H    -2.373530    0.109496    0.012226
  H     2.917112    0.348620    0.031273

----------------------------
CARTESIAN COORDINATES (A.U.)
----------------------------
  NO LB    ZA    FRAG    MASS        X           Y           Z
   0 C   6.0000    0    12.011   -2.702185   -0.238898   -0.895825
   1 C   6.0000    0    12.011   -0.592567    0.893939    0.599463
   2 O   8.0000    0    15.999   -0.806630    2.467159    2.224679
   3 C   6.0000    0    12.011    2.014097   -0.183048   -0.114221
   4 O   8.0000    0    15.999    2.306702   -2.215371   -1.103098
   5 O   8.0000    0    15.999    3.884570    1.388893    0.487849
   6 H   1.0000    0     1.008   -2.407926   -2.271943   -1.091817
   7 H   1.0000    0     1.008   -2.671452    0.555512   -2.807476
   8 H   1.0000    0     1.008   -4.485322    0.206918    0.023105
   9 H   1.0000    0     1.008    5.512544    0.658797    0.059098

      -----------------------------------------------------------      
     |                   =====================                   |     
     |                           x T B                           |     
     |                   =====================                   |     
     |                         S. Grimme                         |     
     |          Mulliken Center for Theoretical Chemistry        |     
     |                    University of Bonn                     |     
      -----------------------------------------------------------      

   * xtb version 6.5.1 (579679a) compiled by 'ehlert@majestix' on 2022-07-11

   xtb is free software: you can redistribute it and/or modify it under
   the terms of the GNU Lesser General Public License as published by
   the Free Software Foundation, either version 3 of the License, or
   (at your option) any later version.
   
   xtb is distributed in the hope that it will be useful,
   but WITHOUT ANY WARRANTY; without even the implied warranty of
   MERCHANTABILITY or FITNESS FOR A PARTICULAR PURPOSE.  See the
   GNU Lesser General Public License for more details.
   
   Cite this work as:
   * C. Bannwarth, E. Caldeweyher, S. Ehlert, A. Hansen, P. Pracht,
     J. Seibert, S. Spicher, S. Grimme, WIREs Comput. Mol. Sci., 2020, 11,
     e01493. DOI: 10.1002/wcms.1493
   
   for GFN2-xTB:
   * C. Bannwarth, S. Ehlert and S. Grimme., J. Chem. Theory Comput., 2019,
     15, 1652-1671. DOI: 10.1021/acs.jctc.8b01176
   for GFN1-xTB:
   * S. Grimme, C. Bannwarth, P. Shushkov, J. Chem. Theory Comput., 2017,
     13, 1989-2009. DOI: 10.1021/acs.jctc.7b00118
   for GFN0-xTB:
   * P. Pracht, E. Caldeweyher, S. Ehlert, S. Grimme, ChemRxiv, 2019, preprint.
     DOI: 10.26434/chemrxiv.8326202.v1
   for GFN-FF:
   * S. Spicher and S. Grimme, Angew. Chem. Int. Ed., 2020, 59, 15665-15673.
     DOI: 10.1002/anie.202004239
   
   for ALPB and GBSA implicit solvation:
   * S. Ehlert, M. Stahn, S. Spicher, S. Grimme, J. Chem. Theory Comput.,
     2021, 17, 4250-4261. DOI: 10.1021/acs.jctc.1c00471
   
   for DFT-D4:
   * E. Caldeweyher, C. Bannwarth and S. Grimme, J. Chem. Phys., 2017,
     147, 034112. DOI: 10.1063/1.4993215
   * E. Caldeweyher, S. Ehlert, A. Hansen, H. Neugebauer, S. Spicher,
     C. Bannwarth and S. Grimme, J. Chem. Phys., 2019, 150, 154122.
     DOI: 10.1063/1.5090222
   * E. Caldeweyher, J.-M. Mewes, S. Ehlert and S. Grimme, Phys. Chem. Chem. Phys.
     2020, 22, 8499-8512. DOI: 10.1039/D0CP00502A
   
   for sTDA-xTB:
   * S. Grimme and C. Bannwarth, J. Chem. Phys., 2016, 145, 054103.
     DOI: 10.1063/1.4959605
   
   in the mass-spec context:
   * V. Asgeirsson, C. Bauer and S. Grimme, Chem. Sci., 2017, 8, 4879.
     DOI: 10.1039/c7sc00601b
   * J. Koopman and S. Grimme, ACS Omega 2019, 4, 12, 15120-15133.
     DOI: 10.1021/acsomega.9b02011
   
   for metadynamics refer to:
   * S. Grimme, J. Chem. Theory Comput., 2019, 155, 2847-2862
     DOI: 10.1021/acs.jctc.9b00143
   
   for SPH calculations refer to:
   * S. Spicher and S. Grimme, J. Chem. Theory Comput., 2021, 17, 1701-1714
     DOI: 10.1021/acs.jctc.0c01306
   
   with help from (in alphabetical order)
   P. Atkinson, C. Bannwarth, F. Bohle, G. Brandenburg, E. Caldeweyher
   M. Checinski, S. Dohm, S. Ehlert, S. Ehrlich, I. Gerasimov, C. Hölzer
   A. Katbashev, J. Koopman, C. Lavigne, S. Lehtola, F. März, M. Müller,
   F. Musil, H. Neugebauer, J. Pisarek, C. Plett, P. Pracht, F. Pultar,
   J. Seibert, P. Shushkov, S. Spicher, M. Stahn, M. Steiner, T. Strunk,
   J. Stückrath, T. Rose, and J. Unsleber
   
 * started run on 2023/12/07 at 09:49:05.484     

           -------------------------------------------------
          |                Calculation Setup                |
           -------------------------------------------------

          program call               : otool_xtb /tmp/C00022_XTB.xyz --grad -c 0 -u 0 -P 1 --namespace /tmp/C00022 --input /tmp/C00022_XTB.input.tmp --acc 1.000000
          calculation namespace      : /tmp/C00022
          coordinate file            : /tmp/C00022_XTB.xyz
          omp threads                :                     1

   ID    Z sym.   atoms
    1    6 C      1, 2, 4
    2    8 O      3, 5, 6
    3    1 H      7-10

           -------------------------------------------------
          |                 G F N 2 - x T B                 |
           -------------------------------------------------

        Reference                      10.1021/acs.jctc.8b01176
      * Hamiltonian:
        H0-scaling (s, p, d)           1.850000    2.230000    2.230000
        zeta-weighting                 0.500000
      * Dispersion:
        s8                             2.700000
        a1                             0.520000
        a2                             5.000000
        s9                             5.000000
      * Repulsion:
        kExp                           1.500000    1.000000
        rExp                           1.000000
      * Coulomb:
        alpha                          2.000000
        third order                    shell-resolved
        anisotropic                    true
        a3                             3.000000
        a5                             4.000000
        cn-shift                       1.200000
        cn-exp                         4.000000
        max-rad                        5.000000

q/qsh data taken from xtbrestart
CAMM data taken from xtbrestart

          ...................................................
          :                      SETUP                      :
          :.................................................:
          :  # basis functions                  28          :
          :  # atomic orbitals                  28          :
          :  # shells                           16          :
          :  # electrons                        34          :
          :  max. iterations                   250          :
          :  Hamiltonian                  GFN2-xTB          :
          :  restarted?                       true          :
          :  GBSA solvation                  false          :
          :  PC potential                    false          :
          :  electronic temp.          300.0000000     K    :
          :  accuracy                    1.0000000          :
          :  -> integral cutoff          0.2500000E+02      :
          :  -> integral neglect         0.1000000E-07      :
          :  -> SCF convergence          0.1000000E-05 Eh   :
          :  -> wf. convergence          0.1000000E-03 e    :
          :  Broyden damping             0.4000000          :
          ...................................................

 iter      E             dE          RMSdq      gap      omega  full diag
   1    -20.8237609 -0.208238E+02  0.481E-01    2.68       0.0  T
   2    -20.8240729 -0.312079E-03  0.258E-01    2.65       1.0  T
   3    -20.8240816 -0.871028E-05  0.124E-01    2.67       1.0  T
   4    -20.8241053 -0.236532E-04  0.280E-02    2.66       1.1  T
   5    -20.8241077 -0.242514E-05  0.117E-02    2.66       2.7  T
   6    -20.8241078 -0.631787E-07  0.472E-03    2.66       6.7  T
   7    -20.8241078 -0.264769E-07  0.172E-03    2.66      18.4  T
   8    -20.8241078 -0.983027E-08  0.412E-04    2.66      76.8  T
   9    -20.8241078 -0.284182E-09  0.160E-04    2.66     197.6  T

   *** convergence criteria satisfied after 9 iterations ***

         #    Occupation            Energy/Eh            Energy/eV
      -------------------------------------------------------------
         1        2.0000           -0.7684973             -20.9119
       ...           ...                  ...                  ...
        11        2.0000           -0.5489165             -14.9368
        12        2.0000           -0.5288630             -14.3911
        13        2.0000           -0.5000821             -13.6079
        14        2.0000           -0.4958141             -13.4918
        15        2.0000           -0.4918127             -13.3829
        16        2.0000           -0.4757110             -12.9448
        17        2.0000           -0.4128120             -11.2332 (HOMO)
        18                         -0.3149559              -8.5704 (LUMO)
        19                         -0.2160965              -5.8803
        20                          0.0118300               0.3219
        21                          0.1182451               3.2176
        22                          0.1391720               3.7871
       ...                                ...                  ...
        28                          0.6882789              18.7290
      -------------------------------------------------------------
                  HL-Gap            0.0978561 Eh            2.6628 eV
             Fermi-level           -0.3638840 Eh           -9.9018 eV

 SCC (total)                   0 d,  0 h,  0 min,  0.005 sec
 SCC setup                      ...        0 min,  0.000 sec (  2.029%)
 Dispersion                     ...        0 min,  0.000 sec (  0.780%)
 classical contributions        ...        0 min,  0.000 sec (  0.210%)
 integral evaluation            ...        0 min,  0.001 sec ( 16.980%)
 iterations                     ...        0 min,  0.002 sec ( 40.507%)
 molecular gradient             ...        0 min,  0.002 sec ( 37.904%)
 printout                       ...        0 min,  0.000 sec (  1.341%)

         :::::::::::::::::::::::::::::::::::::::::::::::::::::
         ::                     SUMMARY                     ::
         :::::::::::::::::::::::::::::::::::::::::::::::::::::
         :: total energy             -20.639265864396 Eh    ::
         :: gradient norm              0.012618173396 Eh/a0 ::
         :: HOMO-LUMO gap              2.662799881657 eV    ::
         ::.................................................::
         :: SCC energy               -20.824107819075 Eh    ::
         :: -> isotropic ES            0.064125284137 Eh    ::
         :: -> anisotropic ES          0.002736148173 Eh    ::
         :: -> anisotropic XC         -0.000218858163 Eh    ::
         :: -> dispersion             -0.005004744521 Eh    ::
         :: repulsion energy           0.184839683988 Eh    ::
         :: add. restraining           0.000000000000 Eh    ::
         :: total charge              -0.000000000000 e     ::
         :::::::::::::::::::::::::::::::::::::::::::::::::::::


Property printout bound to 'properties.out'

           -------------------------------------------------
          | TOTAL ENERGY              -20.639265864396 Eh   |
          | GRADIENT NORM               0.012618173396 Eh/α |
          | HOMO-LUMO GAP               2.662799881657 eV   |
           -------------------------------------------------

------------------------------------------------------------------------
 * finished run on 2023/12/07 at 09:49:05.496     
------------------------------------------------------------------------
 total:
 * wall-time:     0 d,  0 h,  0 min,  0.012 sec
 *  cpu-time:     0 d,  0 h,  0 min,  0.012 sec
 * ratio c/w:     0.979 speedup
 SCF:
 * wall-time:     0 d,  0 h,  0 min,  0.005 sec
 *  cpu-time:     0 d,  0 h,  0 min,  0.004 sec
 * ratio c/w:     0.751 speedup


-------------------------   --------------------
FINAL SINGLE POINT ENERGY       -20.639265864400
-------------------------   --------------------

------------------------------------------------------------------------------
                         ORCA GEOMETRY RELAXATION STEP
------------------------------------------------------------------------------

Reading the OPT-File                    .... done
Getting information on internals        .... done
Copying old internal coords+grads       .... done
Making the new internal coordinates     .... (new redundants).... done
Validating the new internal coordinates .... (new redundants).... done
Calculating the B-matrix                .... done
Calculating the G,G- and P matrices     .... done
Transforming gradient to internals      .... done
Projecting the internal gradient        .... done
Number of atoms                         ....  10
Number of internal coordinates          ....  34
Current Energy                          ....   -20.639265864 Eh
Current gradient norm                   ....     0.012618173 Eh/bohr
Maximum allowed component of the step   ....  0.300
Current trust radius                    ....  0.300
Updating the Hessian (BFGS)             .... done
Forming the augmented Hessian           .... done
Diagonalizing the augmented Hessian     .... done
Last element of RFO vector              ....  0.998834318
Lowest eigenvalues of augmented Hessian:
 -0.000349710  0.008802246  0.010621470  0.011685823  0.016378882
Length of the computed step             ....  0.048326451
The final length of the internal step   ....  0.048326451
Converting the step to cartesian space:
 Initial RMS(Int)=    0.0082879179
Transforming coordinates:
 Iter   0:  RMS(Cart)=    0.0110433205 RMS(Int)=    0.0082913739
 Iter   1:  RMS(Cart)=    0.0000691832 RMS(Int)=    0.0000583224
 Iter   2:  RMS(Cart)=    0.0000008289 RMS(Int)=    0.0000006854
 Iter   3:  RMS(Cart)=    0.0000000129 RMS(Int)=    0.0000000117
done
Storing new coordinates                 .... done

                                .--------------------.
          ----------------------|Geometry convergence|-------------------------
          Item                value                   Tolerance       Converged
          ---------------------------------------------------------------------
          Energy change      -0.0111594329            0.0000050000      NO
          RMS gradient        0.0020167173            0.0001000000      NO
          MAX gradient        0.0063683492            0.0003000000      NO
          RMS step            0.0082879179            0.0020000000      NO
          MAX step            0.0193432747            0.0040000000      NO
          ........................................................
          Max(Bonds)      0.0082      Max(Angles)    0.82
          Max(Dihed)        1.11      Max(Improp)    0.00
          ---------------------------------------------------------------------

The optimization has not yet converged - more geometry cycles are needed


    ---------------------------------------------------------------------------
                         Redundant Internal Coordinates
                            (Angstroem and degrees)

        Definition                    Value    dE/dq     Step     New-Value
    ----------------------------------------------------------------------------
     1. B(C   1,C   0)                1.4939 -0.000607  0.0008    1.4947   
     2. B(O   2,C   1)                1.2023  0.002679 -0.0015    1.2008   
     3. B(C   3,C   1)                1.5395 -0.001324  0.0022    1.5417   
     4. B(O   4,C   3)                1.2060  0.005438 -0.0032    1.2028   
     5. B(O   5,C   3)                1.3316  0.006368 -0.0059    1.3257   
     6. B(H   6,C   0)                1.0920  0.003035 -0.0068    1.0852   
     7. B(H   7,C   0)                1.0956  0.003658 -0.0082    1.0874   
     8. B(H   8,C   0)                1.0874  0.001110 -0.0021    1.0853   
     9. B(H   9,O   5)                0.9710 -0.000485  0.0006    0.9716   
    10. A(H   6,C   0,H   7)          106.75 -0.000931    0.28    107.03   
    11. A(C   1,C   0,H   7)          108.90  0.000701   -0.11    108.79   
    12. A(H   7,C   0,H   8)          110.03  0.001734   -0.39    109.64   
    13. A(C   1,C   0,H   8)          108.94 -0.004167    0.82    109.76   
    14. A(H   6,C   0,H   8)          112.33  0.001894   -0.45    111.88   
    15. A(C   1,C   0,H   6)          109.82  0.000872   -0.16    109.66   
    16. A(C   0,C   1,O   2)          125.90  0.000837   -0.13    125.77   
    17. A(O   2,C   1,C   3)          121.08 -0.000564    0.08    121.16   
    18. A(C   0,C   1,C   3)          113.02 -0.000273    0.05    113.07   
    19. A(O   4,C   3,O   5)          124.43  0.001877   -0.27    124.17   
    20. A(C   1,C   3,O   5)          112.09 -0.000728    0.11    112.19   
    21. A(C   1,C   3,O   4)          123.48 -0.001149    0.16    123.64   
    22. A(C   3,O   5,H   9)          110.79 -0.001438    0.25    111.04   
    23. D(O   2,C   1,C   0,H   6)   -137.82 -0.000204    0.44   -137.38   
    24. D(C   3,C   1,C   0,H   6)     41.51 -0.000204    0.45     41.96   
    25. D(C   3,C   1,C   0,H   7)    -75.06  0.000022    0.27    -74.79   
    26. D(O   2,C   1,C   0,H   7)    105.61  0.000023    0.26    105.87   
    27. D(O   2,C   1,C   0,H   8)    -14.41 -0.000022    0.32    -14.09   
    28. D(C   3,C   1,C   0,H   8)    164.92 -0.000022    0.33    165.25   
    29. D(O   4,C   3,C   1,C   0)    -22.85  0.000189   -1.11    -23.96   
    30. D(O   5,C   3,C   1,O   2)    -23.50  0.000102   -0.72    -24.22   
    31. D(O   5,C   3,C   1,C   0)    157.14  0.000092   -0.73    156.41   
    32. D(O   4,C   3,C   1,O   2)    156.52  0.000199   -1.10    155.41   
    33. D(H   9,O   5,C   3,O   4)     -1.35 -0.000052    0.20     -1.15   
    34. D(H   9,O   5,C   3,C   1)    178.67  0.000046   -0.19    178.47   
    ----------------------------------------------------------------------------

         *************************************************************
         *                GEOMETRY OPTIMIZATION CYCLE   3            *
         *************************************************************
---------------------------------
CARTESIAN COORDINATES (ANGSTROEM)
---------------------------------
  C    -1.430502   -0.123770   -0.474746
  C    -0.313401    0.471178    0.320439
  O    -0.428932    1.297952    1.183537
  C     1.068287   -0.097203   -0.059952
  O     1.228000   -1.174617   -0.570168
  O     2.053874    0.734425    0.247620
  H    -1.277742   -1.193437   -0.575405
  H    -1.409450    0.296713   -1.477284
  H    -2.380192    0.106457   -0.002526
  H     2.917486    0.350101    0.022969

----------------------------
CARTESIAN COORDINATES (A.U.)
----------------------------
  NO LB    ZA    FRAG    MASS        X           Y           Z
   0 C   6.0000    0    12.011   -2.703257   -0.233891   -0.897140
   1 C   6.0000    0    12.011   -0.592241    0.890397    0.605541
   2 O   8.0000    0    15.999   -0.810563    2.452774    2.236562
   3 C   6.0000    0    12.011    2.018771   -0.183687   -0.113292
   4 O   8.0000    0    15.999    2.320585   -2.219704   -1.077461
   5 O   8.0000    0    15.999    3.881259    1.387862    0.467934
   6 H   1.0000    0     1.008   -2.414583   -2.255268   -1.087357
   7 H   1.0000    0     1.008   -2.663475    0.560707   -2.791663
   8 H   1.0000    0     1.008   -4.497911    0.201174   -0.004773
   9 H   1.0000    0     1.008    5.513249    0.661596    0.043405

      -----------------------------------------------------------      
     |                   =====================                   |     
     |                           x T B                           |     
     |                   =====================                   |     
     |                         S. Grimme                         |     
     |          Mulliken Center for Theoretical Chemistry        |     
     |                    University of Bonn                     |     
      -----------------------------------------------------------      

   * xtb version 6.5.1 (579679a) compiled by 'ehlert@majestix' on 2022-07-11

   xtb is free software: you can redistribute it and/or modify it under
   the terms of the GNU Lesser General Public License as published by
   the Free Software Foundation, either version 3 of the License, or
   (at your option) any later version.
   
   xtb is distributed in the hope that it will be useful,
   but WITHOUT ANY WARRANTY; without even the implied warranty of
   MERCHANTABILITY or FITNESS FOR A PARTICULAR PURPOSE.  See the
   GNU Lesser General Public License for more details.
   
   Cite this work as:
   * C. Bannwarth, E. Caldeweyher, S. Ehlert, A. Hansen, P. Pracht,
     J. Seibert, S. Spicher, S. Grimme, WIREs Comput. Mol. Sci., 2020, 11,
     e01493. DOI: 10.1002/wcms.1493
   
   for GFN2-xTB:
   * C. Bannwarth, S. Ehlert and S. Grimme., J. Chem. Theory Comput., 2019,
     15, 1652-1671. DOI: 10.1021/acs.jctc.8b01176
   for GFN1-xTB:
   * S. Grimme, C. Bannwarth, P. Shushkov, J. Chem. Theory Comput., 2017,
     13, 1989-2009. DOI: 10.1021/acs.jctc.7b00118
   for GFN0-xTB:
   * P. Pracht, E. Caldeweyher, S. Ehlert, S. Grimme, ChemRxiv, 2019, preprint.
     DOI: 10.26434/chemrxiv.8326202.v1
   for GFN-FF:
   * S. Spicher and S. Grimme, Angew. Chem. Int. Ed., 2020, 59, 15665-15673.
     DOI: 10.1002/anie.202004239
   
   for ALPB and GBSA implicit solvation:
   * S. Ehlert, M. Stahn, S. Spicher, S. Grimme, J. Chem. Theory Comput.,
     2021, 17, 4250-4261. DOI: 10.1021/acs.jctc.1c00471
   
   for DFT-D4:
   * E. Caldeweyher, C. Bannwarth and S. Grimme, J. Chem. Phys., 2017,
     147, 034112. DOI: 10.1063/1.4993215
   * E. Caldeweyher, S. Ehlert, A. Hansen, H. Neugebauer, S. Spicher,
     C. Bannwarth and S. Grimme, J. Chem. Phys., 2019, 150, 154122.
     DOI: 10.1063/1.5090222
   * E. Caldeweyher, J.-M. Mewes, S. Ehlert and S. Grimme, Phys. Chem. Chem. Phys.
     2020, 22, 8499-8512. DOI: 10.1039/D0CP00502A
   
   for sTDA-xTB:
   * S. Grimme and C. Bannwarth, J. Chem. Phys., 2016, 145, 054103.
     DOI: 10.1063/1.4959605
   
   in the mass-spec context:
   * V. Asgeirsson, C. Bauer and S. Grimme, Chem. Sci., 2017, 8, 4879.
     DOI: 10.1039/c7sc00601b
   * J. Koopman and S. Grimme, ACS Omega 2019, 4, 12, 15120-15133.
     DOI: 10.1021/acsomega.9b02011
   
   for metadynamics refer to:
   * S. Grimme, J. Chem. Theory Comput., 2019, 155, 2847-2862
     DOI: 10.1021/acs.jctc.9b00143
   
   for SPH calculations refer to:
   * S. Spicher and S. Grimme, J. Chem. Theory Comput., 2021, 17, 1701-1714
     DOI: 10.1021/acs.jctc.0c01306
   
   with help from (in alphabetical order)
   P. Atkinson, C. Bannwarth, F. Bohle, G. Brandenburg, E. Caldeweyher
   M. Checinski, S. Dohm, S. Ehlert, S. Ehrlich, I. Gerasimov, C. Hölzer
   A. Katbashev, J. Koopman, C. Lavigne, S. Lehtola, F. März, M. Müller,
   F. Musil, H. Neugebauer, J. Pisarek, C. Plett, P. Pracht, F. Pultar,
   J. Seibert, P. Shushkov, S. Spicher, M. Stahn, M. Steiner, T. Strunk,
   J. Stückrath, T. Rose, and J. Unsleber
   
 * started run on 2023/12/07 at 09:49:05.532     

           -------------------------------------------------
          |                Calculation Setup                |
           -------------------------------------------------

          program call               : otool_xtb /tmp/C00022_XTB.xyz --grad -c 0 -u 0 -P 1 --namespace /tmp/C00022 --input /tmp/C00022_XTB.input.tmp --acc 1.000000
          calculation namespace      : /tmp/C00022
          coordinate file            : /tmp/C00022_XTB.xyz
          omp threads                :                     1

   ID    Z sym.   atoms
    1    6 C      1, 2, 4
    2    8 O      3, 5, 6
    3    1 H      7-10

           -------------------------------------------------
          |                 G F N 2 - x T B                 |
           -------------------------------------------------

        Reference                      10.1021/acs.jctc.8b01176
      * Hamiltonian:
        H0-scaling (s, p, d)           1.850000    2.230000    2.230000
        zeta-weighting                 0.500000
      * Dispersion:
        s8                             2.700000
        a1                             0.520000
        a2                             5.000000
        s9                             5.000000
      * Repulsion:
        kExp                           1.500000    1.000000
        rExp                           1.000000
      * Coulomb:
        alpha                          2.000000
        third order                    shell-resolved
        anisotropic                    true
        a3                             3.000000
        a5                             4.000000
        cn-shift                       1.200000
        cn-exp                         4.000000
        max-rad                        5.000000

q/qsh data taken from xtbrestart
CAMM data taken from xtbrestart

          ...................................................
          :                      SETUP                      :
          :.................................................:
          :  # basis functions                  28          :
          :  # atomic orbitals                  28          :
          :  # shells                           16          :
          :  # electrons                        34          :
          :  max. iterations                   250          :
          :  Hamiltonian                  GFN2-xTB          :
          :  restarted?                       true          :
          :  GBSA solvation                  false          :
          :  PC potential                    false          :
          :  electronic temp.          300.0000000     K    :
          :  accuracy                    1.0000000          :
          :  -> integral cutoff          0.2500000E+02      :
          :  -> integral neglect         0.1000000E-07      :
          :  -> SCF convergence          0.1000000E-05 Eh   :
          :  -> wf. convergence          0.1000000E-03 e    :
          :  Broyden damping             0.4000000          :
          ...................................................

 iter      E             dE          RMSdq      gap      omega  full diag
   1    -20.8282806 -0.208283E+02  0.875E-02    2.70       0.0  T
   2    -20.8282879 -0.730991E-05  0.506E-02    2.69       1.0  T
   3    -20.8282879 -0.555012E-07  0.233E-02    2.70       1.4  T
   4    -20.8282891 -0.115646E-05  0.257E-03    2.70      12.3  T
   5    -20.8282891 -0.164015E-07  0.142E-03    2.70      22.3  T
   6    -20.8282891 -0.746315E-09  0.456E-04    2.70      69.4  T
   7    -20.8282891 -0.228674E-09  0.182E-04    2.70     174.0  T

   *** convergence criteria satisfied after 7 iterations ***

         #    Occupation            Energy/Eh            Energy/eV
      -------------------------------------------------------------
         1        2.0000           -0.7694905             -20.9389
       ...           ...                  ...                  ...
        11        2.0000           -0.5491929             -14.9443
        12        2.0000           -0.5288328             -14.3903
        13        2.0000           -0.5000985             -13.6084
        14        2.0000           -0.4961756             -13.5016
        15        2.0000           -0.4919454             -13.3865
        16        2.0000           -0.4752536             -12.9323
        17        2.0000           -0.4124500             -11.2233 (HOMO)
        18                         -0.3133850              -8.5276 (LUMO)
        19                         -0.2150259              -5.8512
        20                          0.0103523               0.2817
        21                          0.1181712               3.2156
        22                          0.1500230               4.0823
       ...                                ...                  ...
        28                          0.6955891              18.9279
      -------------------------------------------------------------
                  HL-Gap            0.0990650 Eh            2.6957 eV
             Fermi-level           -0.3629175 Eh           -9.8755 eV

 SCC (total)                   0 d,  0 h,  0 min,  0.005 sec
 SCC setup                      ...        0 min,  0.000 sec (  2.117%)
 Dispersion                     ...        0 min,  0.000 sec (  0.839%)
 classical contributions        ...        0 min,  0.000 sec (  0.200%)
 integral evaluation            ...        0 min,  0.001 sec ( 19.298%)
 iterations                     ...        0 min,  0.002 sec ( 35.355%)
 molecular gradient             ...        0 min,  0.002 sec ( 40.270%)
 printout                       ...        0 min,  0.000 sec (  1.602%)

         :::::::::::::::::::::::::::::::::::::::::::::::::::::
         ::                     SUMMARY                     ::
         :::::::::::::::::::::::::::::::::::::::::::::::::::::
         :: total energy             -20.639454537073 Eh    ::
         :: gradient norm              0.004301791525 Eh/a0 ::
         :: HOMO-LUMO gap              2.695696433427 eV    ::
         ::.................................................::
         :: SCC energy               -20.828289089498 Eh    ::
         :: -> isotropic ES            0.064159719314 Eh    ::
         :: -> anisotropic ES          0.002722955028 Eh    ::
         :: -> anisotropic XC         -0.000443603756 Eh    ::
         :: -> dispersion             -0.005005610707 Eh    ::
         :: repulsion energy           0.188832307706 Eh    ::
         :: add. restraining           0.000000000000 Eh    ::
         :: total charge              -0.000000000000 e     ::
         :::::::::::::::::::::::::::::::::::::::::::::::::::::


Property printout bound to 'properties.out'

           -------------------------------------------------
          | TOTAL ENERGY              -20.639454537073 Eh   |
          | GRADIENT NORM               0.004301791525 Eh/α |
          | HOMO-LUMO GAP               2.695696433427 eV   |
           -------------------------------------------------

------------------------------------------------------------------------
 * finished run on 2023/12/07 at 09:49:05.544     
------------------------------------------------------------------------
 total:
 * wall-time:     0 d,  0 h,  0 min,  0.012 sec
 *  cpu-time:     0 d,  0 h,  0 min,  0.012 sec
 * ratio c/w:     0.983 speedup
 SCF:
 * wall-time:     0 d,  0 h,  0 min,  0.005 sec
 *  cpu-time:     0 d,  0 h,  0 min,  0.004 sec
 * ratio c/w:     0.784 speedup


-------------------------   --------------------
FINAL SINGLE POINT ENERGY       -20.639454537070
-------------------------   --------------------

------------------------------------------------------------------------------
                         ORCA GEOMETRY RELAXATION STEP
------------------------------------------------------------------------------

Reading the OPT-File                    .... done
Getting information on internals        .... done
Copying old internal coords+grads       .... done
Making the new internal coordinates     .... (new redundants).... done
Validating the new internal coordinates .... (new redundants).... done
Calculating the B-matrix                .... done
Calculating the G,G- and P matrices     .... done
Transforming gradient to internals      .... done
Projecting the internal gradient        .... done
Number of atoms                         ....  10
Number of internal coordinates          ....  34
Current Energy                          ....   -20.639454537 Eh
Current gradient norm                   ....     0.004301792 Eh/bohr
Maximum allowed component of the step   ....  0.300
Current trust radius                    ....  0.300
Updating the Hessian (BFGS)             .... done
Forming the augmented Hessian           .... done
Diagonalizing the augmented Hessian     .... done
Last element of RFO vector              ....  0.998978686
Lowest eigenvalues of augmented Hessian:
 -0.000066263  0.008361770  0.010623429  0.011566293  0.016583943
Length of the computed step             ....  0.045230102
The final length of the internal step   ....  0.045230102
Converting the step to cartesian space:
 Initial RMS(Int)=    0.0077568985
Transforming coordinates:
 Iter   0:  RMS(Cart)=    0.0117788368 RMS(Int)=    0.0077584551
 Iter   1:  RMS(Cart)=    0.0000875779 RMS(Int)=    0.0000628421
 Iter   2:  RMS(Cart)=    0.0000012390 RMS(Int)=    0.0000007749
 Iter   3:  RMS(Cart)=    0.0000000206 RMS(Int)=    0.0000000147
done
Storing new coordinates                 .... done

                                .--------------------.
          ----------------------|Geometry convergence|-------------------------
          Item                value                   Tolerance       Converged
          ---------------------------------------------------------------------
          Energy change      -0.0001886727            0.0000050000      NO
          RMS gradient        0.0006561228            0.0001000000      NO
          MAX gradient        0.0018864786            0.0003000000      NO
          RMS step            0.0077568985            0.0020000000      NO
          MAX step            0.0264538757            0.0040000000      NO
          ........................................................
          Max(Bonds)      0.0021      Max(Angles)    0.49
          Max(Dihed)        1.52      Max(Improp)    0.00
          ---------------------------------------------------------------------

The optimization has not yet converged - more geometry cycles are needed


    ---------------------------------------------------------------------------
                         Redundant Internal Coordinates
                            (Angstroem and degrees)

        Definition                    Value    dE/dq     Step     New-Value
    ----------------------------------------------------------------------------
     1. B(C   1,C   0)                1.4947 -0.000413  0.0006    1.4954   
     2. B(O   2,C   1)                1.2008  0.000304 -0.0005    1.2003   
     3. B(C   3,C   1)                1.5417 -0.000414  0.0010    1.5427   
     4. B(O   4,C   3)                1.2028 -0.000600 -0.0003    1.2025   
     5. B(O   5,C   3)                1.3257  0.001191 -0.0021    1.3237   
     6. B(H   6,C   0)                1.0852 -0.001466  0.0016    1.0868   
     7. B(H   7,C   0)                1.0874 -0.001546  0.0016    1.0890   
     8. B(H   8,C   0)                1.0853 -0.000415  0.0002    1.0855   
     9. B(H   9,O   5)                0.9716 -0.000208  0.0003    0.9719   
    10. A(H   6,C   0,H   7)          107.03 -0.000721    0.27    107.30   
    11. A(C   1,C   0,H   7)          108.79  0.000445   -0.08    108.71   
    12. A(H   7,C   0,H   8)          109.64  0.000731   -0.23    109.41   
    13. A(C   1,C   0,H   8)          109.76 -0.001886    0.49    110.25   
    14. A(H   6,C   0,H   8)          111.88  0.000945   -0.33    111.55   
    15. A(C   1,C   0,H   6)          109.66  0.000528   -0.13    109.54   
    16. A(C   0,C   1,O   2)          125.77 -0.000184    0.01    125.78   
    17. A(O   2,C   1,C   3)          121.16 -0.000278    0.06    121.22   
    18. A(C   0,C   1,C   3)          113.07  0.000463   -0.07    113.00   
    19. A(O   4,C   3,O   5)          124.17 -0.000173   -0.02    124.15   
    20. A(C   1,C   3,O   5)          112.19  0.000174   -0.01    112.19   
    21. A(C   1,C   3,O   4)          123.64 -0.000002    0.03    123.67   
    22. A(C   3,O   5,H   9)          111.04 -0.001015    0.21    111.25   
    23. D(O   2,C   1,C   0,H   6)   -137.38 -0.000277    0.61   -136.77   
    24. D(C   3,C   1,C   0,H   6)     41.96 -0.000231    0.33     42.29   
    25. D(C   3,C   1,C   0,H   7)    -74.79  0.000084    0.13    -74.67   
    26. D(O   2,C   1,C   0,H   7)    105.87  0.000038    0.40    106.27   
    27. D(O   2,C   1,C   0,H   8)    -14.09  0.000006    0.44    -13.65   
    28. D(C   3,C   1,C   0,H   8)    165.25  0.000052    0.16    165.41   
    29. D(O   4,C   3,C   1,C   0)    -23.96  0.000005   -0.58    -24.54   
    30. D(O   5,C   3,C   1,O   2)    -24.21  0.000247   -1.52    -25.73   
    31. D(O   5,C   3,C   1,C   0)    156.41  0.000203   -1.26    155.15   
    32. D(O   4,C   3,C   1,O   2)    155.41  0.000049   -0.83    154.58   
    33. D(H   9,O   5,C   3,O   4)     -1.15  0.000112   -0.38     -1.53   
    34. D(H   9,O   5,C   3,C   1)    178.48 -0.000086    0.33    178.80   
    ----------------------------------------------------------------------------

         *************************************************************
         *                GEOMETRY OPTIMIZATION CYCLE   4            *
         *************************************************************
---------------------------------
CARTESIAN COORDINATES (ANGSTROEM)
---------------------------------
  C    -1.429146   -0.120703   -0.475730
  C    -0.313537    0.469726    0.326072
  O    -0.431168    1.290016    1.194420
  C     1.068695   -0.101201   -0.052536
  O     1.228491   -1.181013   -0.557005
  O     2.051804    0.736824    0.236059
  H    -1.278822   -1.192654   -0.573395
  H    -1.400899    0.303038   -1.478476
  H    -2.384959    0.107500   -0.014497
  H     2.916968    0.356268    0.009573

----------------------------
CARTESIAN COORDINATES (A.U.)
----------------------------
  NO LB    ZA    FRAG    MASS        X           Y           Z
   0 C   6.0000    0    12.011   -2.700694   -0.228096   -0.898999
   1 C   6.0000    0    12.011   -0.592498    0.887654    0.616187
   2 O   8.0000    0    15.999   -0.814790    2.437776    2.257126
   3 C   6.0000    0    12.011    2.019540   -0.191242   -0.099279
   4 O   8.0000    0    15.999    2.321512   -2.231792   -1.052588
   5 O   8.0000    0    15.999    3.877348    1.392395    0.446087
   6 H   1.0000    0     1.008   -2.416623   -2.253789   -1.083559
   7 H   1.0000    0     1.008   -2.647316    0.572658   -2.793914
   8 H   1.0000    0     1.008   -4.506919    0.203146   -0.027396
   9 H   1.0000    0     1.008    5.512271    0.673249    0.018091

      -----------------------------------------------------------      
     |                   =====================                   |     
     |                           x T B                           |     
     |                   =====================                   |     
     |                         S. Grimme                         |     
     |          Mulliken Center for Theoretical Chemistry        |     
     |                    University of Bonn                     |     
      -----------------------------------------------------------      

   * xtb version 6.5.1 (579679a) compiled by 'ehlert@majestix' on 2022-07-11

   xtb is free software: you can redistribute it and/or modify it under
   the terms of the GNU Lesser General Public License as published by
   the Free Software Foundation, either version 3 of the License, or
   (at your option) any later version.
   
   xtb is distributed in the hope that it will be useful,
   but WITHOUT ANY WARRANTY; without even the implied warranty of
   MERCHANTABILITY or FITNESS FOR A PARTICULAR PURPOSE.  See the
   GNU Lesser General Public License for more details.
   
   Cite this work as:
   * C. Bannwarth, E. Caldeweyher, S. Ehlert, A. Hansen, P. Pracht,
     J. Seibert, S. Spicher, S. Grimme, WIREs Comput. Mol. Sci., 2020, 11,
     e01493. DOI: 10.1002/wcms.1493
   
   for GFN2-xTB:
   * C. Bannwarth, S. Ehlert and S. Grimme., J. Chem. Theory Comput., 2019,
     15, 1652-1671. DOI: 10.1021/acs.jctc.8b01176
   for GFN1-xTB:
   * S. Grimme, C. Bannwarth, P. Shushkov, J. Chem. Theory Comput., 2017,
     13, 1989-2009. DOI: 10.1021/acs.jctc.7b00118
   for GFN0-xTB:
   * P. Pracht, E. Caldeweyher, S. Ehlert, S. Grimme, ChemRxiv, 2019, preprint.
     DOI: 10.26434/chemrxiv.8326202.v1
   for GFN-FF:
   * S. Spicher and S. Grimme, Angew. Chem. Int. Ed., 2020, 59, 15665-15673.
     DOI: 10.1002/anie.202004239
   
   for ALPB and GBSA implicit solvation:
   * S. Ehlert, M. Stahn, S. Spicher, S. Grimme, J. Chem. Theory Comput.,
     2021, 17, 4250-4261. DOI: 10.1021/acs.jctc.1c00471
   
   for DFT-D4:
   * E. Caldeweyher, C. Bannwarth and S. Grimme, J. Chem. Phys., 2017,
     147, 034112. DOI: 10.1063/1.4993215
   * E. Caldeweyher, S. Ehlert, A. Hansen, H. Neugebauer, S. Spicher,
     C. Bannwarth and S. Grimme, J. Chem. Phys., 2019, 150, 154122.
     DOI: 10.1063/1.5090222
   * E. Caldeweyher, J.-M. Mewes, S. Ehlert and S. Grimme, Phys. Chem. Chem. Phys.
     2020, 22, 8499-8512. DOI: 10.1039/D0CP00502A
   
   for sTDA-xTB:
   * S. Grimme and C. Bannwarth, J. Chem. Phys., 2016, 145, 054103.
     DOI: 10.1063/1.4959605
   
   in the mass-spec context:
   * V. Asgeirsson, C. Bauer and S. Grimme, Chem. Sci., 2017, 8, 4879.
     DOI: 10.1039/c7sc00601b
   * J. Koopman and S. Grimme, ACS Omega 2019, 4, 12, 15120-15133.
     DOI: 10.1021/acsomega.9b02011
   
   for metadynamics refer to:
   * S. Grimme, J. Chem. Theory Comput., 2019, 155, 2847-2862
     DOI: 10.1021/acs.jctc.9b00143
   
   for SPH calculations refer to:
   * S. Spicher and S. Grimme, J. Chem. Theory Comput., 2021, 17, 1701-1714
     DOI: 10.1021/acs.jctc.0c01306
   
   with help from (in alphabetical order)
   P. Atkinson, C. Bannwarth, F. Bohle, G. Brandenburg, E. Caldeweyher
   M. Checinski, S. Dohm, S. Ehlert, S. Ehrlich, I. Gerasimov, C. Hölzer
   A. Katbashev, J. Koopman, C. Lavigne, S. Lehtola, F. März, M. Müller,
   F. Musil, H. Neugebauer, J. Pisarek, C. Plett, P. Pracht, F. Pultar,
   J. Seibert, P. Shushkov, S. Spicher, M. Stahn, M. Steiner, T. Strunk,
   J. Stückrath, T. Rose, and J. Unsleber
   
 * started run on 2023/12/07 at 09:49:05.580     

           -------------------------------------------------
          |                Calculation Setup                |
           -------------------------------------------------

          program call               : otool_xtb /tmp/C00022_XTB.xyz --grad -c 0 -u 0 -P 1 --namespace /tmp/C00022 --input /tmp/C00022_XTB.input.tmp --acc 1.000000
          calculation namespace      : /tmp/C00022
          coordinate file            : /tmp/C00022_XTB.xyz
          omp threads                :                     1

   ID    Z sym.   atoms
    1    6 C      1, 2, 4
    2    8 O      3, 5, 6
    3    1 H      7-10

           -------------------------------------------------
          |                 G F N 2 - x T B                 |
           -------------------------------------------------

        Reference                      10.1021/acs.jctc.8b01176
      * Hamiltonian:
        H0-scaling (s, p, d)           1.850000    2.230000    2.230000
        zeta-weighting                 0.500000
      * Dispersion:
        s8                             2.700000
        a1                             0.520000
        a2                             5.000000
        s9                             5.000000
      * Repulsion:
        kExp                           1.500000    1.000000
        rExp                           1.000000
      * Coulomb:
        alpha                          2.000000
        third order                    shell-resolved
        anisotropic                    true
        a3                             3.000000
        a5                             4.000000
        cn-shift                       1.200000
        cn-exp                         4.000000
        max-rad                        5.000000

q/qsh data taken from xtbrestart
CAMM data taken from xtbrestart

          ...................................................
          :                      SETUP                      :
          :.................................................:
          :  # basis functions                  28          :
          :  # atomic orbitals                  28          :
          :  # shells                           16          :
          :  # electrons                        34          :
          :  max. iterations                   250          :
          :  Hamiltonian                  GFN2-xTB          :
          :  restarted?                       true          :
          :  GBSA solvation                  false          :
          :  PC potential                    false          :
          :  electronic temp.          300.0000000     K    :
          :  accuracy                    1.0000000          :
          :  -> integral cutoff          0.2500000E+02      :
          :  -> integral neglect         0.1000000E-07      :
          :  -> SCF convergence          0.1000000E-05 Eh   :
          :  -> wf. convergence          0.1000000E-03 e    :
          :  Broyden damping             0.4000000          :
          ...................................................

 iter      E             dE          RMSdq      gap      omega  full diag
   1    -20.8281382 -0.208281E+02  0.606E-02    2.71       0.0  T
   2    -20.8281392 -0.102415E-05  0.353E-02    2.71       1.0  T
   3    -20.8281390  0.264661E-06  0.100E-02    2.71       3.2  T
   4    -20.8281394 -0.467214E-06  0.143E-03    2.71      22.1  T
   5    -20.8281394 -0.421219E-08  0.821E-04    2.71      38.5  T
   6    -20.8281394 -0.182620E-09  0.323E-04    2.71      97.9  T

   *** convergence criteria satisfied after 6 iterations ***

         #    Occupation            Energy/Eh            Energy/eV
      -------------------------------------------------------------
         1        2.0000           -0.7698435             -20.9485
       ...           ...                  ...                  ...
        11        2.0000           -0.5492082             -14.9447
        12        2.0000           -0.5288324             -14.3903
[...]
     16       0.000000   0.000000   0.000000   0.000000   0.000000   0.000000
     17       0.000000   0.000000   0.000000   0.000000   0.000000   0.000000
     18       0.000000   0.000000   0.000000   0.000000   0.000000   0.000000
     19       0.000000   0.000000   0.000000   0.000000   0.000000   0.000000
     20       0.000000   0.000000   0.000000   0.000000   0.000000   0.000000
     21       0.000000   0.000000   0.000000   0.000000   0.000000   0.000000
     22       0.000000   0.000000   0.000000   0.000000   0.000000   0.000000
     23       0.000000   0.000000   0.000000   0.000000   0.000000   0.000000
     24       0.000000   0.000000   0.000000   0.000000   0.000000   0.000000
     25       0.000000   0.000000   0.000000   0.000000   0.000000   0.000000
     26       0.000000   0.000000   0.000000   0.000000   0.000000   0.000000
     27       0.000000   0.000000   0.000000   0.000000   0.000000   0.000000
     28       0.000000   0.000000   0.000000   0.000000   0.000000   0.000000
     29       0.000000   0.000000   0.000000   0.000000   0.000000   0.000000
                  6          7          8          9         10         11    
      0      -0.052285  -0.007197  -0.228155   0.175237   0.151729   0.015882
      1      -0.231527  -0.002089   0.147258   0.025675  -0.121591   0.018573
      2       0.191935   0.000220   0.041198  -0.046438  -0.096347   0.039291
      3      -0.003888  -0.001431  -0.015260   0.012564   0.026759   0.161202
      4       0.014433  -0.000698  -0.085378  -0.103470   0.073395  -0.196384
      5      -0.024771  -0.007349  -0.092641   0.226543  -0.082035  -0.024762
      6       0.041262   0.004980   0.210681   0.006486   0.304798  -0.012628
      7       0.221808   0.018150  -0.028221   0.187037  -0.051982  -0.084985
      8      -0.187770  -0.021383  -0.102823  -0.016752   0.061370  -0.152844
      9      -0.000386   0.001414  -0.010669  -0.034999  -0.103081   0.132779
     10       0.010656  -0.003638  -0.101476  -0.175547   0.055666   0.010294
     11      -0.026127   0.003095  -0.048120   0.157882  -0.093444   0.111558
     12      -0.041010  -0.000473   0.242571   0.044827  -0.214118  -0.252190
     13       0.095830  -0.012050  -0.082365  -0.055898  -0.012651  -0.007538
     14      -0.299892   0.025905   0.031180  -0.148702   0.067278   0.009696
     15       0.051733   0.003774  -0.201773  -0.198962  -0.185910   0.041914
     16      -0.101820  -0.007063   0.083604   0.023376   0.090845   0.155939
     17       0.317626  -0.000650   0.112404  -0.032702   0.074812   0.049401
     18       0.055777   0.293998  -0.497556   0.168704   0.472132  -0.406858
     19      -0.229838   0.076961   0.122437   0.043209  -0.103480  -0.001178
     20       0.311380  -0.491647   0.005309  -0.227584   0.024806  -0.132914
     21      -0.225125  -0.341107  -0.276726   0.464459   0.192682  -0.048157
     22      -0.350409   0.481284   0.152326   0.217148  -0.218062   0.164108
     23       0.123815   0.175656   0.038929   0.058472  -0.134116   0.095631
     24      -0.027975  -0.002968  -0.109154   0.068563   0.021907   0.200960
     25      -0.279427  -0.450776   0.366691   0.000549  -0.358433   0.335726
     26       0.277104   0.285455   0.189093  -0.282689  -0.264818   0.288574
     27       0.046165   0.004609  -0.080451  -0.178962  -0.073767   0.099752
     28      -0.105945  -0.015623   0.258622   0.305380   0.174932   0.490881
     29       0.305948   0.017135   0.306064  -0.430410   0.383777  -0.265746
                 12         13         14         15         16         17    
      0       0.140149  -0.035923  -0.048278   0.180541  -0.012767  -0.014170
      1       0.091170  -0.003799  -0.003398   0.048785  -0.032117  -0.176903
      2       0.109566  -0.045811  -0.063879   0.099283   0.166462  -0.078142
      3       0.156170  -0.006216   0.001934   0.137826  -0.053031   0.102093
      4       0.216868   0.079650   0.047830  -0.069609   0.105107   0.120224
      5      -0.118669  -0.078298  -0.069929  -0.068833  -0.140964  -0.013858
      6      -0.181078   0.040306   0.047679  -0.016639   0.001092  -0.004208
      7      -0.026696  -0.029678  -0.031957  -0.078289  -0.060194   0.046677
      8       0.039397   0.016165   0.004449  -0.100246  -0.030135   0.088492
      9       0.072465  -0.011575   0.025259  -0.201795   0.014969   0.001059
     10      -0.126111  -0.019284  -0.085684   0.096471  -0.027525  -0.003424
     11      -0.076804   0.099917   0.348902   0.037131   0.072189  -0.000292
     12       0.001940   0.017101  -0.013593   0.051913   0.002867   0.010696
     13      -0.154728   0.021376   0.065316   0.159380  -0.001623   0.006382
     14      -0.053753   0.003820  -0.088249   0.045479  -0.016019  -0.000707
     15      -0.117763   0.001736  -0.007161  -0.121598   0.002112  -0.037414
     16       0.027799  -0.028656   0.032824  -0.123528   0.000873  -0.031002
     17       0.017072   0.050004  -0.128636  -0.020947  -0.008199  -0.004499
     18       0.305055   0.107729   0.070266  -0.043411   0.018814  -0.707200
     19       0.077816  -0.008703  -0.013075   0.032235   0.019555  -0.183250
     20       0.370544   0.124366   0.126843   0.042291  -0.236646  -0.438980
     21      -0.303986  -0.246120  -0.322318   0.019417   0.682192  -0.050017
     22      -0.168551  -0.159208  -0.183550   0.084676   0.324594   0.196023
     23      -0.033831  -0.124802  -0.155336   0.098202   0.346536   0.069022
     24       0.236848  -0.017192   0.004242   0.336191  -0.206636   0.187882
     25       0.000783  -0.097469  -0.071795   0.250888   0.021490   0.312911
     26       0.401109   0.056984   0.106120   0.354991  -0.359236   0.132550
     27       0.080202  -0.143100   0.071695  -0.331097   0.014940  -0.000091
     28       0.360493   0.177947  -0.290484  -0.595616   0.059934   0.040409
     29       0.242715  -0.879151   0.731158  -0.099011  -0.051979   0.015209
                 18         19         20         21         22         23    
      0       0.163250  -0.098097  -0.041180   0.094370   0.038417   0.058070
      1      -0.027009  -0.001709   0.003310   0.053924   0.048172  -0.038089
      2       0.010014  -0.004299   0.005903   0.096414  -0.038153  -0.002307
      3      -0.239051   0.187349   0.175690  -0.020399  -0.005909  -0.001200
      4       0.025544   0.014169   0.005979  -0.001618   0.012340   0.001910
      5      -0.043853   0.019779   0.019821  -0.004906  -0.002966   0.007299
      6       0.029609  -0.027235  -0.014562   0.002019   0.000982   0.000859
      7      -0.002869   0.007554  -0.012898  -0.002527  -0.005949  -0.010043
      8       0.009115   0.008120  -0.015350  -0.002799  -0.007053  -0.011158
      9      -0.131787  -0.006056  -0.416345   0.013174   0.001375   0.003761
     10      -0.073326  -0.018575  -0.105491   0.001994  -0.004359  -0.001972
     11       0.001004  -0.013137   0.013213   0.001608   0.002660  -0.001754
     12       0.010449  -0.007108   0.039501  -0.001973  -0.000108  -0.001336
     13      -0.119719  -0.057945  -0.000182   0.001901   0.001842   0.004255
     14      -0.040560  -0.016105  -0.003749   0.000690  -0.000492   0.001053
     15       0.124996   0.003330   0.168484  -0.003669  -0.000931  -0.000609
     16       0.189218   0.115470   0.053451  -0.002227   0.000104  -0.001006
     17       0.039425   0.034473  -0.004511  -0.000606  -0.000224  -0.000302
     18      -0.203796   0.069142   0.009243  -0.382699  -0.559781  -0.067564
     19      -0.048944   0.013799   0.006977   0.028606  -0.066692  -0.060600
     20      -0.035995  -0.025964  -0.044089  -0.483087   0.347837   0.434523
     21      -0.113153   0.071134  -0.001211  -0.391080   0.234093  -0.489409
     22       0.086499  -0.030904  -0.049677  -0.417216   0.130768   0.498445
     23       0.035534  -0.005927  -0.019073  -0.186756   0.055206   0.178588
     24       0.392287  -0.240820  -0.147408  -0.200336  -0.073736  -0.148282
     25       0.318508  -0.181455  -0.133121  -0.204358  -0.665020   0.125973
     26       0.397829  -0.267251  -0.181967  -0.391972   0.181553  -0.489962
     27      -0.221518  -0.398571   0.427597  -0.006748  -0.003420   0.000026
     28      -0.522439  -0.761504   0.681356  -0.008778  -0.004624  -0.001393
     29      -0.132767  -0.149189   0.155903  -0.004629  -0.003023   0.003441
                 24         25         26         27         28         29    
      0      -0.012486  -0.028946   0.005112  -0.005750  -0.068921   0.000158
      1      -0.003906  -0.035476   0.047634  -0.059313   0.032899  -0.000016
      2      -0.012247  -0.036601  -0.065935  -0.015052   0.034097   0.000003
      3       0.027979  -0.059699  -0.000035  -0.000943  -0.002282  -0.000031
      4       0.081620   0.492836   0.000427  -0.002883   0.001175   0.000585
      5       0.117923   0.587511  -0.002640  -0.002166   0.001057   0.000353
      6       0.018200   0.057894  -0.000131  -0.000111   0.000223  -0.000167
      7      -0.072389  -0.328684   0.000441   0.000751  -0.000295  -0.000099
      8      -0.089865  -0.396549   0.000519   0.000905  -0.000320  -0.000025
      9      -0.114635   0.044837  -0.000180  -0.000286   0.000250   0.003860
     10       0.725012  -0.137964  -0.000014  -0.000140  -0.000022   0.001615
     11       0.255619  -0.065750  -0.000019  -0.000044  -0.000071  -0.000113
     12       0.086521  -0.012506   0.000030   0.000151   0.000073  -0.000023
     13      -0.480820   0.086881   0.000008   0.000091  -0.000083  -0.000197
     14      -0.166098   0.032480   0.000035   0.000058  -0.000034  -0.000026
     15      -0.031591  -0.010139   0.000116   0.000202  -0.000013   0.054096
     16      -0.064602   0.008383  -0.000042  -0.000089  -0.000059  -0.024233
     17      -0.016792   0.004790  -0.000015  -0.000076  -0.000037  -0.014011
     18      -0.052174  -0.039249   0.028988  -0.102053  -0.002656   0.000146
     19       0.000645   0.016718  -0.223486   0.928883  -0.211454  -0.001623
     20      -0.004446  -0.180938  -0.051942   0.074472  -0.003640  -0.000161
     21      -0.034584  -0.028958  -0.085108  -0.022523  -0.023550   0.000270
     22      -0.000119  -0.129225  -0.378739  -0.122130   0.035650   0.000694
     23      -0.004408  -0.045025   0.887657   0.211562  -0.031112  -0.001762
     24      -0.021901   0.075342  -0.001192   0.205724   0.867783  -0.000676
     25      -0.012480   0.111699   0.022654  -0.076931  -0.223412   0.000520
     26      -0.022739   0.132105  -0.026980  -0.094849  -0.377504   0.001120
     27       0.129263  -0.044624  -0.001292  -0.001819  -0.000620  -0.902830
     28       0.252822  -0.100152   0.000601   0.001017   0.000396   0.363708
     29       0.055701   0.015333   0.000032   0.000421   0.000431   0.221085


-----------
IR SPECTRUM
-----------

 Mode   freq       eps      Int      T**2         TX        TY        TZ
       cm**-1   L/(mol*cm) km/mol    a.u.
----------------------------------------------------------------------------
  6:     30.79   0.002300   11.62  0.023308  ( 0.004662 -0.083080  0.128000)
  7:    120.90   0.001888    9.54  0.004873  ( 0.002667  0.012292 -0.068661)
  8:    210.33   0.000993    5.02  0.001473  (-0.035693  0.012332  0.006834)
  9:    282.30   0.000220    1.11  0.000244  (-0.008140  0.000854  0.013295)
 10:    370.98   0.000454    2.30  0.000382  ( 0.017719  0.006140  0.005515)
 11:    552.27   0.007209   36.43  0.004074  ( 0.060424  0.014015 -0.015035)
 12:    573.55   0.012076   61.02  0.006570  ( 0.075351  0.025431  0.015673)
 13:    632.15   0.018400   92.99  0.009083  (-0.041393  0.036708 -0.077605)
 14:    716.43   0.026404  133.44  0.011501  ( 0.001093 -0.037474  0.100477)
 15:    749.69   0.003143   15.88  0.001308  (-0.032203 -0.011413 -0.011878)
 16:    979.06   0.002003   10.12  0.000638  (-0.002948  0.013898 -0.020896)
 17:    988.02   0.003471   17.54  0.001096  ( 0.009183  0.031752 -0.001963)
 18:   1123.33   0.050825  256.85  0.014119  (-0.102400 -0.053568 -0.027641)
 19:   1145.96   0.012489   63.11  0.003401  ( 0.001661 -0.058284  0.001112)
 20:   1254.42   0.013189   66.65  0.003281  (-0.048944 -0.028008  0.010059)
 21:   1355.84   0.012428   62.81  0.002861  (-0.040285 -0.008429 -0.034156)
 22:   1428.33   0.002871   14.51  0.000627  ( 0.002266 -0.020064  0.014819)
 23:   1433.98   0.007620   38.51  0.001658  (-0.008609  0.034729  0.019443)
 24:   1778.78   0.090467  457.18  0.015871  ( 0.011512  0.117809  0.043126)
 25:   1789.33   0.030704  155.17  0.005355  (-0.000440  0.034780  0.064383)
 26:   3012.30   0.001251    6.32  0.000130  ( 0.008054  0.008041  0.000259)
 27:   3034.32   0.001908    9.64  0.000196  ( 0.012032  0.005922  0.004049)
 28:   3063.38   0.005548   28.04  0.000565  (-0.019232  0.013975  0.000215)
 29:   3407.41   0.005830   29.46  0.000534  (-0.020160 -0.001686  0.011164)

* The epsilon (eps) is given for a Dirac delta lineshape.
** The dipole moment derivative (T) already includes vibrational overlap.

The first frequency considered to be a vibration is 6
The total number of vibrations considered is 24


--------------------------
THERMOCHEMISTRY AT 298.15K
--------------------------

Temperature         ... 298.15 K
Pressure            ... 1.00 atm
Total Mass          ... 88.06 AMU

Throughout the following assumptions are being made:
  (1) The electronic state is orbitally nondegenerate
  (2) There are no thermally accessible electronically excited states
  (3) Hindered rotations indicated by low frequency modes are not
      treated as such but are treated as vibrations and this may
      cause some error
  (4) All equations used are the standard statistical mechanics
      equations for an ideal gas
  (5) All vibrations are strictly harmonic

freq.      30.79  E(vib)   ...       0.55 
freq.     120.90  E(vib)   ...       0.44 
freq.     210.33  E(vib)   ...       0.34 
freq.     282.30  E(vib)   ...       0.28 
freq.     370.98  E(vib)   ...       0.21 
freq.     552.27  E(vib)   ...       0.12 
freq.     573.55  E(vib)   ...       0.11 
freq.     632.15  E(vib)   ...       0.09 
freq.     716.43  E(vib)   ...       0.07 
freq.     749.69  E(vib)   ...       0.06 
freq.     979.06  E(vib)   ...       0.03 
freq.     988.02  E(vib)   ...       0.02 
freq.    1123.33  E(vib)   ...       0.01 
freq.    1145.96  E(vib)   ...       0.01 
freq.    1254.42  E(vib)   ...       0.01 
freq.    1355.84  E(vib)   ...       0.01 
freq.    1428.33  E(vib)   ...       0.00 
freq.    1433.98  E(vib)   ...       0.00 
freq.    1778.78  E(vib)   ...       0.00 
freq.    1789.33  E(vib)   ...       0.00 
freq.    3012.30  E(vib)   ...       0.00 
freq.    3034.32  E(vib)   ...       0.00 
freq.    3063.38  E(vib)   ...       0.00 
freq.    3407.41  E(vib)   ...       0.00 

------------
INNER ENERGY
------------

The inner energy is: U= E(el) + E(ZPE) + E(vib) + E(rot) + E(trans)
    E(el)   - is the total energy from the electronic structure calculation
              = E(kin-el) + E(nuc-el) + E(el-el) + E(nuc-nuc)
    E(ZPE)  - the the zero temperature vibrational energy from the frequency calculation
    E(vib)  - the the finite temperature correction to E(ZPE) due to population
              of excited vibrational states
    E(rot)  - is the rotational thermal energy
    E(trans)- is the translational thermal energy

Summary of contributions to the inner energy U:
Electronic energy                ...    -20.63957256 Eh
Zero point energy                ...      0.06842212 Eh      42.94 kcal/mol
Thermal vibrational correction   ...      0.00376489 Eh       2.36 kcal/mol
Thermal rotational correction    ...      0.00141627 Eh       0.89 kcal/mol
Thermal translational correction ...      0.00141627 Eh       0.89 kcal/mol
-----------------------------------------------------------------------
Total thermal energy                    -20.56455301 Eh


Summary of corrections to the electronic energy:
(perhaps to be used in another calculation)
Total thermal correction                  0.00659743 Eh       4.14 kcal/mol
Non-thermal (ZPE) correction              0.06842212 Eh      42.94 kcal/mol
-----------------------------------------------------------------------
Total correction                          0.07501955 Eh      47.08 kcal/mol


--------
ENTHALPY
--------

The enthalpy is H = U + kB*T
                kB is Boltzmann's constant
Total free energy                 ...    -20.56455301 Eh 
Thermal Enthalpy correction       ...      0.00094421 Eh       0.59 kcal/mol
-----------------------------------------------------------------------
Total Enthalpy                    ...    -20.56360880 Eh


Note: Only C1 symmetry has been detected, increase convergence thresholds 
      if your molecule has a higher symmetry. Symmetry factor of 1.0 is   
      used for the rotational entropy correction. 
 

Note: Rotational entropy computed according to Herzberg 
Infrared and Raman Spectra, Chapter V,1, Van Nostrand Reinhold, 1945 
Point Group:  C1, Symmetry Number:   1  
Rotational constants in cm-1:     0.187305     0.111589     0.076409 

Vibrational entropy computed according to the QRRHO of S. Grimme
Chem.Eur.J. 2012 18 9955


-------
ENTROPY
-------

The entropy contributions are T*S = T*(S(el)+S(vib)+S(rot)+S(trans))
     S(el)   - electronic entropy
     S(vib)  - vibrational entropy
     S(rot)  - rotational entropy
     S(trans)- translational entropy
The entropies will be listed as multiplied by the temperature to get
units of energy

Electronic entropy                ...      0.00000000 Eh      0.00 kcal/mol
Vibrational entropy               ...      0.00666073 Eh      4.18 kcal/mol
Rotational entropy                ...      0.01255089 Eh      7.88 kcal/mol
Translational entropy             ...      0.01869119 Eh     11.73 kcal/mol
-----------------------------------------------------------------------
Final entropy term                ...      0.03790281 Eh     23.78 kcal/mol

In case the symmetry of your molecule has not been determined correctly
or in case you have a reason to use a different symmetry number we print 
out the resulting rotational entropy values for sn=1,12 :
 --------------------------------------------------------
|  sn= 1 | S(rot)=       0.01255089 Eh      7.88 kcal/mol|
|  sn= 2 | S(rot)=       0.01189643 Eh      7.47 kcal/mol|
|  sn= 3 | S(rot)=       0.01151360 Eh      7.22 kcal/mol|
|  sn= 4 | S(rot)=       0.01124197 Eh      7.05 kcal/mol|
|  sn= 5 | S(rot)=       0.01103128 Eh      6.92 kcal/mol|
|  sn= 6 | S(rot)=       0.01085914 Eh      6.81 kcal/mol|
|  sn= 7 | S(rot)=       0.01071359 Eh      6.72 kcal/mol|
|  sn= 8 | S(rot)=       0.01058752 Eh      6.64 kcal/mol|
|  sn= 9 | S(rot)=       0.01047631 Eh      6.57 kcal/mol|
|  sn=10 | S(rot)=       0.01037683 Eh      6.51 kcal/mol|
|  sn=11 | S(rot)=       0.01028684 Eh      6.46 kcal/mol|
|  sn=12 | S(rot)=       0.01020468 Eh      6.40 kcal/mol|
 --------------------------------------------------------


-------------------
GIBBS FREE ENERGY
-------------------

The Gibbs free energy is G = H - T*S

Total enthalpy                    ...    -20.56360880 Eh 
Total entropy correction          ...     -0.03790281 Eh    -23.78 kcal/mol
-----------------------------------------------------------------------
Final Gibbs free energy         ...    -20.60151161 Eh

For completeness - the Gibbs free energy minus the electronic energy
G-E(el)                           ...      0.03806095 Eh     23.88 kcal/mol



Timings for individual modules:

Sum of individual times         ...      145.119 sec (=   2.419 min)
Geometry relaxation             ...        0.196 sec (=   0.003 min)   0.1 %
Numerical frequency calculation ...      144.716 sec (=   2.412 min)  99.7 %
XTB module                      ...        0.206 sec (=   0.003 min)   0.1 %
                             ****ORCA TERMINATED NORMALLY****
TOTAL RUN TIME: 0 days 0 hours 2 minutes 25 seconds 319 msec
