
                                 *****************
                                 * O   R   C   A *
                                 *****************

                                            #,                                       
                                            ###                                      
                                            ####                                     
                                            #####                                    
                                            ######                                   
                                           ########,                                 
                                     ,,################,,,,,                         
                               ,,#################################,,                 
                          ,,##########################################,,             
                       ,#########################################, ''#####,          
                    ,#############################################,,   '####,        
                  ,##################################################,,,,####,       
                ,###########''''           ''''###############################       
              ,#####''   ,,,,##########,,,,          '''####'''          '####       
            ,##' ,,,,###########################,,,                        '##       
           ' ,,###''''                  '''############,,,                           
         ,,##''                                '''############,,,,        ,,,,,,###''
      ,#''                                            '''#######################'''  
     '                                                          ''''####''''         
             ,#######,   #######,   ,#######,      ##                                
            ,#'     '#,  ##    ##  ,#'     '#,    #''#        ######   ,####,        
            ##       ##  ##   ,#'  ##            #'  '#       #        #'  '#        
            ##       ##  #######   ##           ,######,      #####,   #    #        
            '#,     ,#'  ##    ##  '#,     ,#' ,#      #,         ##   #,  ,#        
             '#######'   ##     ##  '#######'  #'      '#     #####' # '####'        



                  #######################################################
                  #                        -***-                        #
                  #          Department of theory and spectroscopy      #
                  #    Directorship and core code : Frank Neese         #
                  #        Max Planck Institute fuer Kohlenforschung    #
                  #                Kaiser Wilhelm Platz 1               #
                  #                 D-45470 Muelheim/Ruhr               #
                  #                      Germany                        #
                  #                                                     #
                  #                  All rights reserved                #
                  #                        -***-                        #
                  #######################################################


                         Program Version 5.0.3 -  RELEASE  -


 With contributions from (in alphabetic order):
   Daniel Aravena         : Magnetic Suceptibility
   Michael Atanasov       : Ab Initio Ligand Field Theory (pilot matlab implementation)
   Alexander A. Auer      : GIAO ZORA, VPT2 properties, NMR spectrum
   Ute Becker             : Parallelization
   Giovanni Bistoni       : ED, misc. LED, open-shell LED, HFLD
   Martin Brehm           : Molecular dynamics
   Dmytro Bykov           : SCF Hessian
   Vijay G. Chilkuri      : MRCI spin determinant printing, contributions to CSF-ICE
   Dipayan Datta          : RHF DLPNO-CCSD density
   Achintya Kumar Dutta   : EOM-CC, STEOM-CC
   Dmitry Ganyushin       : Spin-Orbit,Spin-Spin,Magnetic field MRCI
   Miquel Garcia          : C-PCM and meta-GGA Hessian, CC/C-PCM, Gaussian charge scheme
   Yang Guo               : DLPNO-NEVPT2, F12-NEVPT2, CIM, IAO-localization
   Andreas Hansen         : Spin unrestricted coupled pair/coupled cluster methods
   Benjamin Helmich-Paris : MC-RPA, TRAH-SCF, COSX integrals
   Lee Huntington         : MR-EOM, pCC
   Robert Izsak           : Overlap fitted RIJCOSX, COSX-SCS-MP3, EOM
   Marcus Kettner         : VPT2
   Christian Kollmar      : KDIIS, OOCD, Brueckner-CCSD(T), CCSD density, CASPT2, CASPT2-K
   Simone Kossmann        : Meta GGA functionals, TD-DFT gradient, OOMP2, MP2 Hessian
   Martin Krupicka        : Initial AUTO-CI
   Lucas Lang             : DCDCAS
   Marvin Lechner         : AUTO-CI (C++ implementation), FIC-MRCC
   Dagmar Lenk            : GEPOL surface, SMD
   Dimitrios Liakos       : Extrapolation schemes; Compound Job, initial MDCI parallelization
   Dimitrios Manganas     : Further ROCIS development; embedding schemes
   Dimitrios Pantazis     : SARC Basis sets
   Anastasios Papadopoulos: AUTO-CI, single reference methods and gradients
   Taras Petrenko         : DFT Hessian,TD-DFT gradient, ASA, ECA, R-Raman, ABS, FL, XAS/XES, NRVS
   Peter Pinski           : DLPNO-MP2, DLPNO-MP2 Gradient
   Christoph Reimann      : Effective Core Potentials
   Marius Retegan         : Local ZFS, SOC
   Christoph Riplinger    : Optimizer, TS searches, QM/MM, DLPNO-CCSD(T), (RO)-DLPNO pert. Triples
   Tobias Risthaus        : Range-separated hybrids, TD-DFT gradient, RPA, STAB
   Michael Roemelt        : Original ROCIS implementation
   Masaaki Saitow         : Open-shell DLPNO-CCSD energy and density
   Barbara Sandhoefer     : DKH picture change effects
   Avijit Sen             : IP-ROCIS
   Kantharuban Sivalingam : CASSCF convergence, NEVPT2, FIC-MRCI
   Bernardo de Souza      : ESD, SOC TD-DFT
   Georgi Stoychev        : AutoAux, RI-MP2 NMR, DLPNO-MP2 response
   Willem Van den Heuvel  : Paramagnetic NMR
   Boris Wezisla          : Elementary symmetry handling
   Frank Wennmohs         : Technical directorship


 We gratefully acknowledge several colleagues who have allowed us to
 interface, adapt or use parts of their codes:
   Stefan Grimme, W. Hujo, H. Kruse, P. Pracht,  : VdW corrections, initial TS optimization,
                  C. Bannwarth, S. Ehlert          DFT functionals, gCP, sTDA/sTD-DF
   Ed Valeev, F. Pavosevic, A. Kumar             : LibInt (2-el integral package), F12 methods
   Garnet Chan, S. Sharma, J. Yang, R. Olivares  : DMRG
   Ulf Ekstrom                                   : XCFun DFT Library
   Mihaly Kallay                                 : mrcc  (arbitrary order and MRCC methods)
   Jiri Pittner, Ondrej Demel                    : Mk-CCSD
   Frank Weinhold                                : gennbo (NPA and NBO analysis)
   Christopher J. Cramer and Donald G. Truhlar   : smd solvation model
   Lars Goerigk                                  : TD-DFT with DH, B97 family of functionals
   V. Asgeirsson, H. Jonsson                     : NEB implementation
   FAccTs GmbH                                   : IRC, NEB, NEB-TS, DLPNO-Multilevel, CI-OPT
                                                   MM, QMMM, 2- and 3-layer-ONIOM, Crystal-QMMM,
                                                   LR-CPCM, SF, NACMEs, symmetry and pop. for TD-DFT,
                                                   nearIR, NL-DFT gradient (VV10), updates on ESD,
                                                   ML-optimized integration grids
   S Lehtola, MJT Oliveira, MAL Marques          : LibXC Library
   Liviu Ungur et al                             : ANISO software


 Your calculation uses the libint2 library for the computation of 2-el integrals
 For citations please refer to: http://libint.valeyev.net

 Your ORCA version has been built with support for libXC version: 5.1.0
 For citations please refer to: https://tddft.org/programs/libxc/

 This ORCA versions uses:
   CBLAS   interface :  Fast vector & matrix operations
   LAPACKE interface :  Fast linear algebra routines
   SCALAPACK package :  Parallel linear algebra routines
   Shared memory     :  Shared parallel matrices
   BLAS/LAPACK       :  OpenBLAS 0.3.15  USE64BITINT DYNAMIC_ARCH NO_AFFINITY Haswell SINGLE_THREADED
        Core in use  :  Haswell
   Copyright (c) 2011-2014, The OpenBLAS Project


Your calculation utilizes the semiempirical GFN2-xTB method
Please cite in your paper:
C. Bannwarth, Ehlert S., S. Grimme,  J. Chem. Theory Comput., 15, (2019), 1652.
   

================================================================================

================================================================================
                                        WARNINGS
                       Please study these warnings very carefully!
================================================================================


WARNING: Geometry Optimization
  ===> : Switching off AutoStart
         For restart on a previous wavefunction, please use MOREAD

WARNING: Found dipole moment calculation with XTB calculation
  ===> : Switching off dipole moment calculation


WARNING: TRAH-SCF for XTB is not implemented!
  ===> : Turning TRAH off!

================================================================================
                                       INPUT FILE
================================================================================
NAME = /tmp/C00118.inp
|  1> ! XTB2 opt numfreq
|  2> * xyz 0 1
|  3>   O    -0.618842    0.010413   -2.105074
|  4>   C    -0.557745    0.934823   -1.333547
|  5>   C    -1.290425    1.000454   -0.009683
|  6>   O    -1.074415    2.223591    0.636222
|  7>   C    -0.930557   -0.188849    0.928941
|  8>   O    -0.348065   -1.285816    0.270270
|  9>   P     1.140830   -1.058574   -0.291128
| 10>   O     1.522920    0.365740   -0.323351
| 11>   O     2.059063   -1.929136    0.658563
| 12>   O     1.205472   -1.889906   -1.621024
| 13>   H    -0.005137    1.858829   -1.574564
| 14>   H    -2.360459    0.970665   -0.245921
| 15>   H    -0.121456    2.348320    0.741141
| 16>   H    -0.248501    0.204295    1.690993
| 17>   H    -1.824173   -0.577122    1.423629
| 18>   H     2.851661   -1.451115    0.898689
| 19>   H     0.599829   -1.536412   -2.279555
| 20> *
| 21> 
| 22>                          ****END OF INPUT****
================================================================================

                       *****************************
                       * Geometry Optimization Run *
                       *****************************

Geometry optimization settings:
Update method            Update   .... BFGS
Choice of coordinates    CoordSys .... Z-matrix Internals
Initial Hessian          InHess   .... Almoef's Model

Convergence Tolerances:
Energy Change            TolE     ....  5.0000e-06 Eh
Max. Gradient            TolMAXG  ....  3.0000e-04 Eh/bohr
RMS Gradient             TolRMSG  ....  1.0000e-04 Eh/bohr
Max. Displacement        TolMAXD  ....  4.0000e-03 bohr
RMS Displacement         TolRMSD  ....  2.0000e-03 bohr
Strict Convergence                ....  False
------------------------------------------------------------------------------
                        ORCA OPTIMIZATION COORDINATE SETUP
------------------------------------------------------------------------------

The optimization will be done in new redundant internal coordinates
Making redundant internal coordinates   ...  (new redundants) done
Evaluating the initial hessian          ...  (Almloef) done
Evaluating the coordinates              ...  done
Calculating the B-matrix                .... done
Calculating the G-matrix                .... done
Diagonalizing the G-matrix              .... done
Small eigenvalue found = 1.297e-02
Small eigenvalue found = 2.878e-02
The first mode is                       ....   26
The number of degrees of freedom        ....   45

    -----------------------------------------------------------------
                    Redundant Internal Coordinates


    -----------------------------------------------------------------
         Definition                    Initial Value    Approx d2E/dq
    -----------------------------------------------------------------
      1. B(C   1,O   0)                  1.2056         1.101644   
      2. B(C   2,C   1)                  1.5145         0.395448   
      3. B(O   3,C   2)                  1.4000         0.539471   
      4. B(C   4,C   2)                  1.5572         0.338015   
      5. B(O   5,C   4)                  1.4059         0.527898   
      6. B(P   6,O   5)                  1.6074         0.846410   
      7. B(O   7,P   6)                  1.4750         1.376309   
      8. B(O   8,P   6)                  1.5821         0.928828   
      9. B(O   9,P   6)                  1.5697         0.972056   
     10. B(H  10,C   1)                  1.1033         0.342940   
     11. B(H  11,C   2)                  1.0962         0.351983   
     12. B(H  12,O   3)                  0.9668         0.507134   
     13. B(H  13,C   4)                  1.0957         0.352681   
     14. B(H  14,C   4)                  1.0927         0.356529   
     15. B(H  15,O   8)                  0.9562         0.527207   
     16. B(H  16,O   9)                  0.9620         0.516169   
     17. A(O   0,C   1,H  10)          121.8528         0.383830   
     18. A(O   0,C   1,C   2)          124.6176         0.441058   
     19. A(C   2,C   1,H  10)          113.3889         0.324749   
     20. A(C   1,C   2,C   4)          112.4567         0.360686   
     21. A(C   1,C   2,O   3)          111.5005         0.388525   
     22. A(C   1,C   2,H  11)          106.4195         0.326142   
     23. A(O   3,C   2,H  11)          105.8894         0.341318   
     24. A(C   4,C   2,H  11)          109.5555         0.317867   
     25. A(O   3,C   2,C   4)          110.7023         0.378073   
     26. A(C   2,O   3,H  12)          108.3532         0.359866   
     27. A(O   5,C   4,H  13)          110.3598         0.340195   
     28. A(H  13,C   4,H  14)          108.7663         0.289438   
     29. A(C   2,C   4,O   5)          114.1590         0.376658   
     30. A(O   5,C   4,H  14)          105.8836         0.340813   
     31. A(C   2,C   4,H  13)          106.8006         0.317970   
     32. A(C   2,C   4,H  14)          110.8095         0.318533   
     33. A(C   4,O   5,P   6)          115.9199         0.470566   
     34. A(O   5,P   6,O   7)          112.5874         0.604011   
     35. A(O   8,P   6,O   9)          101.1425         0.575147   
     36. A(O   7,P   6,O   9)          118.8313         0.620400   
     37. A(O   5,P   6,O   9)          105.0216         0.565029   
     38. A(O   7,P   6,O   8)          113.2109         0.614957   
     39. A(O   5,P   6,O   8)          104.4875         0.560153   
     40. A(P   6,O   8,H  15)          110.9003         0.424763   
     41. A(P   6,O   9,H  16)          111.0656         0.426617   
     42. D(C   4,C   2,C   1,H  10)   -126.4466         0.011618   
     43. D(H  11,C   2,C   1,H  10)    113.5941         0.011618   
     44. D(O   3,C   2,C   1,O   0)   -177.1630         0.011618   
     45. D(O   3,C   2,C   1,H  10)     -1.4207         0.011618   
     46. D(H  11,C   2,C   1,O   0)    -62.1482         0.011618   
     47. D(C   4,C   2,C   1,O   0)     57.8111         0.011618   
     48. D(H  12,O   3,C   2,H  11)   -171.4990         0.023150   
     49. D(H  12,O   3,C   2,C   4)     69.8407         0.023150   
     50. D(H  12,O   3,C   2,C   1)    -56.1576         0.023150   
     51. D(H  13,C   4,C   2,O   3)    -21.6007         0.009261   
     52. D(H  13,C   4,C   2,C   1)    103.8611         0.009261   
     53. D(O   5,C   4,C   2,H  11)     99.7277         0.009261   
     54. D(O   5,C   4,C   2,O   3)   -143.8596         0.009261   
     55. D(H  13,C   4,C   2,H  11)   -138.0135         0.009261   
     56. D(O   5,C   4,C   2,C   1)    -18.3977         0.009261   
     57. D(H  14,C   4,C   2,H  11)    -19.7027         0.009261   
     58. D(H  14,C   4,C   2,O   3)     96.7101         0.009261   
     59. D(H  14,C   4,C   2,C   1)   -137.8281         0.009261   
     60. D(P   6,O   5,C   4,H  14)   -168.0259         0.022122   
     61. D(P   6,O   5,C   4,H  13)    -50.4862         0.022122   
     62. D(P   6,O   5,C   4,C   2)     69.8024         0.022122   
     63. D(O   9,P   6,O   5,C   4)   -145.2751         0.012437   
     64. D(O   8,P   6,O   5,C   4)    108.7035         0.012437   
     65. D(O   7,P   6,O   5,C   4)    -14.5516         0.012437   
     66. D(H  15,O   8,P   6,O   9)    114.1113         0.014854   
     67. D(H  15,O   8,P   6,O   7)    -14.1497         0.014854   
     68. D(H  15,O   8,P   6,O   5)   -137.0001         0.014854   
     69. D(H  16,O   9,P   6,O   8)    173.1642         0.016231   
     70. D(H  16,O   9,P   6,O   7)    -62.2982         0.016231   
     71. D(H  16,O   9,P   6,O   5)     64.6915         0.016231   
    -----------------------------------------------------------------

Number of atoms                         .... 17
Number of degrees of freedom            .... 71

         *************************************************************
         *                GEOMETRY OPTIMIZATION CYCLE   1            *
         *************************************************************
---------------------------------
CARTESIAN COORDINATES (ANGSTROEM)
---------------------------------
  O    -0.618842    0.010413   -2.105074
  C    -0.557745    0.934823   -1.333547
  C    -1.290425    1.000454   -0.009683
  O    -1.074415    2.223591    0.636222
  C    -0.930557   -0.188849    0.928941
  O    -0.348065   -1.285816    0.270270
  P     1.140830   -1.058574   -0.291128
  O     1.522920    0.365740   -0.323351
  O     2.059063   -1.929136    0.658563
  O     1.205472   -1.889906   -1.621024
  H    -0.005137    1.858829   -1.574564
  H    -2.360459    0.970665   -0.245921
  H    -0.121456    2.348320    0.741141
  H    -0.248501    0.204295    1.690993
  H    -1.824173   -0.577122    1.423629
  H     2.851661   -1.451115    0.898689
  H     0.599829   -1.536412   -2.279555

----------------------------
CARTESIAN COORDINATES (A.U.)
----------------------------
  NO LB    ZA    FRAG    MASS        X           Y           Z
   0 O   8.0000    0    15.999   -1.169442    0.019678   -3.978013
   1 C   6.0000    0    12.011   -1.053985    1.766559   -2.520039
   2 C   6.0000    0    12.011   -2.438550    1.890584   -0.018298
   3 O   8.0000    0    15.999   -2.030350    4.201978    1.202285
   4 C   6.0000    0    12.011   -1.758498   -0.356873    1.755444
   5 O   8.0000    0    15.999   -0.657748   -2.429840    0.510736
   6 P  15.0000    0    30.974    2.155856   -2.000415   -0.550152
   7 O   8.0000    0    15.999    2.877902    0.691148   -0.611045
   8 O   8.0000    0    15.999    3.891065   -3.645539    1.244504
   9 O   8.0000    0    15.999    2.278012   -3.571405   -3.063291
  10 H   1.0000    0     1.008   -0.009708    3.512678   -2.975495
  11 H   1.0000    0     1.008   -4.460621    1.834291   -0.464723
  12 H   1.0000    0     1.008   -0.229519    4.437682    1.400554
  13 H   1.0000    0     1.008   -0.469599    0.386062    3.195514
  14 H   1.0000    0     1.008   -3.447187   -1.090603    2.690269
  15 H   1.0000    0     1.008    5.388858   -2.742210    1.698276
  16 H   1.0000    0     1.008    1.133513   -2.903398   -4.307735

      -----------------------------------------------------------      
     |                   =====================                   |     
     |                           x T B                           |     
     |                   =====================                   |     
     |                         S. Grimme                         |     
     |          Mulliken Center for Theoretical Chemistry        |     
     |                    University of Bonn                     |     
      -----------------------------------------------------------      

   * xtb version 6.5.1 (579679a) compiled by 'ehlert@majestix' on 2022-07-11

   xtb is free software: you can redistribute it and/or modify it under
   the terms of the GNU Lesser General Public License as published by
   the Free Software Foundation, either version 3 of the License, or
   (at your option) any later version.
   
   xtb is distributed in the hope that it will be useful,
   but WITHOUT ANY WARRANTY; without even the implied warranty of
   MERCHANTABILITY or FITNESS FOR A PARTICULAR PURPOSE.  See the
   GNU Lesser General Public License for more details.
   
   Cite this work as:
   * C. Bannwarth, E. Caldeweyher, S. Ehlert, A. Hansen, P. Pracht,
     J. Seibert, S. Spicher, S. Grimme, WIREs Comput. Mol. Sci., 2020, 11,
     e01493. DOI: 10.1002/wcms.1493
   
   for GFN2-xTB:
   * C. Bannwarth, S. Ehlert and S. Grimme., J. Chem. Theory Comput., 2019,
     15, 1652-1671. DOI: 10.1021/acs.jctc.8b01176
   for GFN1-xTB:
   * S. Grimme, C. Bannwarth, P. Shushkov, J. Chem. Theory Comput., 2017,
     13, 1989-2009. DOI: 10.1021/acs.jctc.7b00118
   for GFN0-xTB:
   * P. Pracht, E. Caldeweyher, S. Ehlert, S. Grimme, ChemRxiv, 2019, preprint.
     DOI: 10.26434/chemrxiv.8326202.v1
   for GFN-FF:
   * S. Spicher and S. Grimme, Angew. Chem. Int. Ed., 2020, 59, 15665-15673.
     DOI: 10.1002/anie.202004239
   
   for ALPB and GBSA implicit solvation:
   * S. Ehlert, M. Stahn, S. Spicher, S. Grimme, J. Chem. Theory Comput.,
     2021, 17, 4250-4261. DOI: 10.1021/acs.jctc.1c00471
   
   for DFT-D4:
   * E. Caldeweyher, C. Bannwarth and S. Grimme, J. Chem. Phys., 2017,
     147, 034112. DOI: 10.1063/1.4993215
   * E. Caldeweyher, S. Ehlert, A. Hansen, H. Neugebauer, S. Spicher,
     C. Bannwarth and S. Grimme, J. Chem. Phys., 2019, 150, 154122.
     DOI: 10.1063/1.5090222
   * E. Caldeweyher, J.-M. Mewes, S. Ehlert and S. Grimme, Phys. Chem. Chem. Phys.
     2020, 22, 8499-8512. DOI: 10.1039/D0CP00502A
   
   for sTDA-xTB:
   * S. Grimme and C. Bannwarth, J. Chem. Phys., 2016, 145, 054103.
     DOI: 10.1063/1.4959605
   
   in the mass-spec context:
   * V. Asgeirsson, C. Bauer and S. Grimme, Chem. Sci., 2017, 8, 4879.
     DOI: 10.1039/c7sc00601b
   * J. Koopman and S. Grimme, ACS Omega 2019, 4, 12, 15120-15133.
     DOI: 10.1021/acsomega.9b02011
   
   for metadynamics refer to:
   * S. Grimme, J. Chem. Theory Comput., 2019, 155, 2847-2862
     DOI: 10.1021/acs.jctc.9b00143
   
   for SPH calculations refer to:
   * S. Spicher and S. Grimme, J. Chem. Theory Comput., 2021, 17, 1701-1714
     DOI: 10.1021/acs.jctc.0c01306
   
   with help from (in alphabetical order)
   P. Atkinson, C. Bannwarth, F. Bohle, G. Brandenburg, E. Caldeweyher
   M. Checinski, S. Dohm, S. Ehlert, S. Ehrlich, I. Gerasimov, C. Hölzer
   A. Katbashev, J. Koopman, C. Lavigne, S. Lehtola, F. März, M. Müller,
   F. Musil, H. Neugebauer, J. Pisarek, C. Plett, P. Pracht, F. Pultar,
   J. Seibert, P. Shushkov, S. Spicher, M. Stahn, M. Steiner, T. Strunk,
   J. Stückrath, T. Rose, and J. Unsleber
   
 * started run on 2023/12/07 at 10:13:24.570     

           -------------------------------------------------
          |                Calculation Setup                |
           -------------------------------------------------

          program call               : otool_xtb /tmp/C00118_XTB.xyz --grad -c 0 -u 0 -P 1 --namespace /tmp/C00118 --input /tmp/C00118_XTB.input.tmp --acc 1.000000
          calculation namespace      : /tmp/C00118
          coordinate file            : /tmp/C00118_XTB.xyz
          omp threads                :                     1

   ID    Z sym.   atoms
    1    8 O      1, 4, 6, 8-10
    2    6 C      2, 3, 5
    3   15 P      7
    4    1 H      11-17

           -------------------------------------------------
          |                 G F N 2 - x T B                 |
           -------------------------------------------------

        Reference                      10.1021/acs.jctc.8b01176
      * Hamiltonian:
        H0-scaling (s, p, d)           1.850000    2.230000    2.230000
        zeta-weighting                 0.500000
      * Dispersion:
        s8                             2.700000
        a1                             0.520000
        a2                             5.000000
        s9                             5.000000
      * Repulsion:
        kExp                           1.500000    1.000000
        rExp                           1.000000
      * Coulomb:
        alpha                          2.000000
        third order                    shell-resolved
        anisotropic                    true
        a3                             3.000000
        a5                             4.000000
        cn-shift                       1.200000
        cn-exp                         4.000000
        max-rad                        5.000000

q/qsh data taken from xtbrestart
CAMM data taken from xtbrestart

          ...................................................
          :                      SETUP                      :
          :.................................................:
          :  # basis functions                  53          :
          :  # atomic orbitals                  52          :
          :  # shells                           28          :
          :  # electrons                        60          :
          :  max. iterations                   250          :
          :  Hamiltonian                  GFN2-xTB          :
          :  restarted?                       true          :
          :  GBSA solvation                  false          :
          :  PC potential                    false          :
          :  electronic temp.          300.0000000     K    :
          :  accuracy                    1.0000000          :
          :  -> integral cutoff          0.2500000E+02      :
          :  -> integral neglect         0.1000000E-07      :
          :  -> SCF convergence          0.1000000E-05 Eh   :
          :  -> wf. convergence          0.1000000E-03 e    :
          :  Broyden damping             0.4000000          :
          ...................................................

 iter      E             dE          RMSdq      gap      omega  full diag
   1    -37.2868396 -0.372868E+02  0.536E-05    3.67       0.0  T
   2    -37.2868396 -0.459721E-11  0.307E-05    3.67     789.2  T
   3    -37.2868396 -0.717648E-12  0.175E-05    3.67    1385.0  T

   *** convergence criteria satisfied after 3 iterations ***

         #    Occupation            Energy/Eh            Energy/eV
      -------------------------------------------------------------
         1        2.0000           -0.7512512             -20.4426
       ...           ...                  ...                  ...
        24        2.0000           -0.4991823             -13.5834
        25        2.0000           -0.4817083             -13.1080
        26        2.0000           -0.4719731             -12.8430
        27        2.0000           -0.4589651             -12.4891
        28        2.0000           -0.4537517             -12.3472
        29        2.0000           -0.4489654             -12.2170
        30        2.0000           -0.4138579             -11.2616 (HOMO)
        31                         -0.2788668              -7.5884 (LUMO)
        32                         -0.0691065              -1.8805
        33                         -0.0273436              -0.7441
        34                         -0.0162274              -0.4416
        35                          0.0141872               0.3861
       ...                                ...                  ...
        52                          1.2067453              32.8372
      -------------------------------------------------------------
                  HL-Gap            0.1349911 Eh            3.6733 eV
             Fermi-level           -0.3463623 Eh           -9.4250 eV

 SCC (total)                   0 d,  0 h,  0 min,  0.012 sec
 SCC setup                      ...        0 min,  0.000 sec (  1.206%)
 Dispersion                     ...        0 min,  0.000 sec (  0.708%)
 classical contributions        ...        0 min,  0.000 sec (  0.149%)
 integral evaluation            ...        0 min,  0.003 sec ( 21.209%)
 iterations                     ...        0 min,  0.002 sec ( 18.847%)
 molecular gradient             ...        0 min,  0.007 sec ( 57.048%)
 printout                       ...        0 min,  0.000 sec (  0.716%)

         :::::::::::::::::::::::::::::::::::::::::::::::::::::
         ::                     SUMMARY                     ::
         :::::::::::::::::::::::::::::::::::::::::::::::::::::
         :: total energy             -37.035023950928 Eh    ::
         :: gradient norm              0.007992641196 Eh/a0 ::
         :: HOMO-LUMO gap              3.673295700414 eV    ::
         ::.................................................::
         :: SCC energy               -37.286839638639 Eh    ::
         :: -> isotropic ES            0.153947726897 Eh    ::
         :: -> anisotropic ES         -0.009997528141 Eh    ::
         :: -> anisotropic XC         -0.002082080041 Eh    ::
         :: -> dispersion             -0.015135010051 Eh    ::
         :: repulsion energy           0.251757316981 Eh    ::
         :: add. restraining           0.000000000000 Eh    ::
         :: total charge              -0.000000000000 e     ::
         :::::::::::::::::::::::::::::::::::::::::::::::::::::


Property printout bound to 'properties.out'

           -------------------------------------------------
          | TOTAL ENERGY              -37.035023950928 Eh   |
          | GRADIENT NORM               0.007992641196 Eh/α |
          | HOMO-LUMO GAP               3.673295700414 eV   |
           -------------------------------------------------

------------------------------------------------------------------------
 * finished run on 2023/12/07 at 10:13:24.591     
------------------------------------------------------------------------
 total:
 * wall-time:     0 d,  0 h,  0 min,  0.021 sec
 *  cpu-time:     0 d,  0 h,  0 min,  0.020 sec
 * ratio c/w:     0.958 speedup
 SCF:
 * wall-time:     0 d,  0 h,  0 min,  0.012 sec
 *  cpu-time:     0 d,  0 h,  0 min,  0.012 sec
 * ratio c/w:     0.990 speedup


-------------------------   --------------------
FINAL SINGLE POINT ENERGY       -37.035023950930
-------------------------   --------------------

------------------------------------------------------------------------------
                         ORCA GEOMETRY RELAXATION STEP
------------------------------------------------------------------------------

Reading the OPT-File                    .... done
Getting information on internals        .... done
Copying old internal coords+grads       .... done
Making the new internal coordinates     .... (new redundants).... done
Validating the new internal coordinates .... (new redundants).... done
Calculating the B-matrix                .... done
Calculating the G,G- and P matrices     .... done
Transforming gradient to internals      .... done
Projecting the internal gradient        .... done
Number of atoms                         ....  17
Number of internal coordinates          ....  71
Current Energy                          ....   -37.035023951 Eh
Current gradient norm                   ....     0.007992641 Eh/bohr
Maximum allowed component of the step   ....  0.300
Current trust radius                    ....  0.300
Evaluating the initial hessian          ....  (Almloef) done
Projecting the Hessian                  .... done
Forming the augmented Hessian           .... done
Diagonalizing the augmented Hessian     .... done
Last element of RFO vector              ....  0.945388131
Lowest eigenvalues of augmented Hessian:
 -0.001764415  0.009681260  0.011622121  0.012361452  0.012888267
Length of the computed step             ....  0.344775585
Warning: the length of the step is outside the trust region - taking restricted step instead
The input lambda is                     ....    -0.001764
   iter:   1  x=   -0.003344  g=   18.282116 f(x)=     0.028870
   iter:   2  x=   -0.003707  g=   12.817476 f(x)=     0.004663
   iter:   3  x=   -0.003722  g=   11.883464 f(x)=     0.000173
   iter:   4  x=   -0.003722  g=   11.848085 f(x)=     0.000000
   iter:   5  x=   -0.003722  g=   11.848033 f(x)=     0.000000
   iter:   6  x=   -0.003722  g=   11.848033 f(x)=    -0.000000
The output lambda is                    ....    -0.003722 (6 iterations)
The final length of the internal step   ....  0.300000000
Converting the step to cartesian space:
 Initial RMS(Int)=    0.0356034497
Transforming coordinates:
 Iter   0:  RMS(Cart)=    0.1311444838 RMS(Int)=    0.0356963784
 Iter   1:  RMS(Cart)=    0.0057654098 RMS(Int)=    0.0035657328
 Iter   2:  RMS(Cart)=    0.0004785375 RMS(Int)=    0.0002421977
 Iter   3:  RMS(Cart)=    0.0000534572 RMS(Int)=    0.0000393964
 Iter   4:  RMS(Cart)=    0.0000051556 RMS(Int)=    0.0000038909
 Iter   5:  RMS(Cart)=    0.0000006772 RMS(Int)=    0.0000005327
 Iter   6:  RMS(Cart)=    0.0000000753 RMS(Int)=    0.0000000671
done
Storing new coordinates                 .... done

                                .--------------------.
          ----------------------|Geometry convergence|-------------------------
          Item                value                   Tolerance       Converged
          ---------------------------------------------------------------------
          RMS gradient        0.0010365210            0.0001000000      NO
          MAX gradient        0.0034202363            0.0003000000      NO
          RMS step            0.0356034497            0.0020000000      NO
          MAX step            0.0916444747            0.0040000000      NO
          ........................................................
          Max(Bonds)      0.0015      Max(Angles)    0.46
          Max(Dihed)        5.25      Max(Improp)    0.00
          ---------------------------------------------------------------------

The optimization has not yet converged - more geometry cycles are needed


    ---------------------------------------------------------------------------
                         Redundant Internal Coordinates
                            (Angstroem and degrees)

        Definition                    Value    dE/dq     Step     New-Value
    ----------------------------------------------------------------------------
     1. B(C   1,O   0)                1.2056  0.000093 -0.0000    1.2056   
     2. B(C   2,C   1)                1.5145 -0.000120  0.0002    1.5147   
     3. B(O   3,C   2)                1.4000  0.001216 -0.0012    1.3988   
     4. B(C   4,C   2)                1.5572 -0.000662  0.0010    1.5583   
     5. B(O   5,C   4)                1.4059 -0.000805  0.0008    1.4067   
     6. B(P   6,O   5)                1.6074  0.002476 -0.0015    1.6058   
     7. B(O   7,P   6)                1.4750 -0.000766  0.0003    1.4753   
     8. B(O   8,P   6)                1.5821 -0.001091  0.0006    1.5827   
     9. B(O   9,P   6)                1.5697  0.000165 -0.0001    1.5696   
    10. B(H  10,C   1)                1.1033  0.000543 -0.0008    1.1025   
    11. B(H  11,C   2)                1.0962 -0.000389  0.0006    1.0968   
    12. B(H  12,O   3)                0.9668 -0.000223  0.0002    0.9670   
    13. B(H  13,C   4)                1.0957  0.000015 -0.0000    1.0956   
    14. B(H  14,C   4)                1.0927  0.000534 -0.0008    1.0919   
    15. B(H  15,O   8)                0.9562  0.000004 -0.0000    0.9562   
    16. B(H  16,O   9)                0.9620 -0.000304  0.0003    0.9623   
    17. A(O   0,C   1,H  10)          121.85 -0.000377   -0.15    121.71   
    18. A(O   0,C   1,C   2)          124.62  0.001226   -0.33    124.28   
    19. A(C   2,C   1,H  10)          113.39 -0.000684   -0.12    113.27   
    20. A(C   1,C   2,C   4)          112.46 -0.002180    0.46    112.92   
    21. A(C   1,C   2,O   3)          111.50  0.000320    0.09    111.59   
    22. A(C   1,C   2,H  11)          106.42  0.000940   -0.30    106.12   
    23. A(O   3,C   2,H  11)          105.89 -0.000716    0.06    105.95   
    24. A(C   4,C   2,H  11)          109.56  0.000837   -0.31    109.25   
    25. A(O   3,C   2,C   4)          110.70  0.000909   -0.05    110.65   
    26. A(C   2,O   3,H  12)          108.35  0.000559   -0.09    108.27   
    27. A(O   5,C   4,H  13)          110.36  0.001477   -0.34    110.02   
    28. A(H  13,C   4,H  14)          108.77 -0.000283    0.03    108.80   
    29. A(C   2,C   4,O   5)          114.16 -0.001228    0.20    114.36   
    30. A(O   5,C   4,H  14)          105.88 -0.000806    0.26    106.15   
    31. A(C   2,C   4,H  13)          106.80 -0.000626    0.07    106.87   
    32. A(C   2,C   4,H  14)          110.81  0.001539   -0.24    110.57   
    33. A(C   4,O   5,P   6)          115.92  0.003420   -0.41    115.51   
    34. A(O   5,P   6,O   7)          112.59 -0.000301    0.04    112.63   
    35. A(O   8,P   6,O   9)          101.14 -0.000446    0.04    101.18   
    36. A(O   7,P   6,O   9)          118.83 -0.001022    0.21    119.04   
    37. A(O   5,P   6,O   9)          105.02 -0.000264    0.09    105.11   
    38. A(O   7,P   6,O   8)          113.21  0.001058   -0.19    113.02   
    39. A(O   5,P   6,O   8)          104.49  0.001174   -0.22    104.26   
    40. A(P   6,O   8,H  15)          110.90  0.000584   -0.08    110.82   
    41. A(P   6,O   9,H  16)          111.07 -0.000606    0.08    111.15   
    42. D(C   4,C   2,C   1,H  10)   -126.45  0.001273   -4.12   -130.57   
    43. D(H  11,C   2,C   1,H  10)    113.59  0.000900   -3.82    109.78   
    44. D(O   3,C   2,C   1,O   0)   -177.16 -0.001422    5.25   -171.91   
    45. D(O   3,C   2,C   1,H  10)     -1.42  0.001050   -3.76     -5.18   
    46. D(H  11,C   2,C   1,O   0)    -62.15 -0.001573    5.19    -56.95   
    47. D(C   4,C   2,C   1,O   0)     57.81 -0.001200    4.89     62.70   
    48. D(H  12,O   3,C   2,H  11)   -171.50 -0.000085    0.29   -171.21   
    49. D(H  12,O   3,C   2,C   4)     69.84 -0.001146    0.65     70.49   
    50. D(H  12,O   3,C   2,C   1)    -56.16  0.000782    0.02    -56.14   
    51. D(H  13,C   4,C   2,O   3)    -21.60 -0.000436    3.42    -18.18   
    52. D(H  13,C   4,C   2,C   1)    103.86 -0.000960    3.85    107.71   
    53. D(O   5,C   4,C   2,H  11)     99.73 -0.001233    3.82    103.54   
    54. D(O   5,C   4,C   2,O   3)   -143.86 -0.001073    3.67   -140.19   
    55. D(H  13,C   4,C   2,H  11)   -138.01 -0.000595    3.56   -134.45   
    56. D(O   5,C   4,C   2,C   1)    -18.40 -0.001598    4.10    -14.30   
    57. D(H  14,C   4,C   2,H  11)    -19.70 -0.000465    3.51    -16.19   
    58. D(H  14,C   4,C   2,O   3)     96.71 -0.000306    3.36    100.08   
    59. D(H  14,C   4,C   2,C   1)   -137.83 -0.000830    3.80   -134.03   
    60. D(P   6,O   5,C   4,H  14)   -168.03 -0.001279    3.31   -164.72   
    61. D(P   6,O   5,C   4,H  13)    -50.49 -0.001312    3.32    -47.17   
    62. D(P   6,O   5,C   4,C   2)     69.80 -0.001885    3.30     73.10   
    63. D(O   9,P   6,O   5,C   4)   -145.28 -0.000032    1.86   -143.41   
    64. D(O   8,P   6,O   5,C   4)    108.70  0.000131    1.86    110.57   
    65. D(O   7,P   6,O   5,C   4)    -14.55 -0.001777    2.23    -12.33   
    66. D(H  15,O   8,P   6,O   9)    114.11 -0.000005   -0.83    113.28   
    67. D(H  15,O   8,P   6,O   7)    -14.15  0.000949   -1.00    -15.15   
    68. D(H  15,O   8,P   6,O   5)   -137.00 -0.000093   -0.79   -137.79   
    69. D(H  16,O   9,P   6,O   8)    173.16  0.000334   -0.38    172.79   
    70. D(H  16,O   9,P   6,O   7)    -62.30  0.000717   -0.47    -62.77   
    71. D(H  16,O   9,P   6,O   5)     64.69 -0.000696   -0.18     64.51   
    ----------------------------------------------------------------------------

         *************************************************************
         *                GEOMETRY OPTIMIZATION CYCLE   2            *
         *************************************************************
---------------------------------
CARTESIAN COORDINATES (ANGSTROEM)
---------------------------------
  O    -0.863493    0.024704   -2.168640
  C    -0.650896    0.911971   -1.380621
  C    -1.293395    1.003409   -0.012024
  O    -1.006243    2.222448    0.610945
  C    -0.916757   -0.190249    0.916135
  O    -0.327863   -1.280128    0.249726
  P     1.184656   -1.055505   -0.240675
  O     1.602469    0.357305   -0.163421
  O     2.041669   -2.006107    0.690338
  O     1.284644   -1.805405   -1.615915
  H    -0.149988    1.845473   -1.685724
  H    -2.376721    1.000365   -0.183290
  H    -0.045319    2.322747    0.652273
  H    -0.229811    0.201191    1.674630
  H    -1.804905   -0.583329    1.415123
  H     2.840622   -1.567880    0.980167
  H     0.711333   -1.400812   -2.274428

----------------------------
CARTESIAN COORDINATES (A.U.)
----------------------------
  NO LB    ZA    FRAG    MASS        X           Y           Z
   0 O   8.0000    0    15.999   -1.631765    0.046684   -4.098136
   1 C   6.0000    0    12.011   -1.230015    1.723375   -2.608996
   2 C   6.0000    0    12.011   -2.444162    1.896169   -0.022721
   3 O   8.0000    0    15.999   -1.901523    4.199819    1.154520
   4 C   6.0000    0    12.011   -1.732420   -0.359518    1.731244
   5 O   8.0000    0    15.999   -0.619572   -2.419092    0.471914
   6 P  15.0000    0    30.974    2.238675   -1.994615   -0.454810
   7 O   8.0000    0    15.999    3.028228    0.675209   -0.308821
   8 O   8.0000    0    15.999    3.858195   -3.790993    1.304550
   9 O   8.0000    0    15.999    2.427625   -3.411721   -3.053638
  10 H   1.0000    0     1.008   -0.283437    3.487439   -3.185556
  11 H   1.0000    0     1.008   -4.491353    1.890417   -0.346367
  12 H   1.0000    0     1.008   -0.085640    4.389356    1.232617
  13 H   1.0000    0     1.008   -0.434279    0.380196    3.164593
  14 H   1.0000    0     1.008   -3.410777   -1.102332    2.674195
  15 H   1.0000    0     1.008    5.367997   -2.962864    1.852248
  16 H   1.0000    0     1.008    1.344224   -2.647151   -4.298046

      -----------------------------------------------------------      
     |                   =====================                   |     
     |                           x T B                           |     
     |                   =====================                   |     
     |                         S. Grimme                         |     
     |          Mulliken Center for Theoretical Chemistry        |     
     |                    University of Bonn                     |     
      -----------------------------------------------------------      

   * xtb version 6.5.1 (579679a) compiled by 'ehlert@majestix' on 2022-07-11

   xtb is free software: you can redistribute it and/or modify it under
   the terms of the GNU Lesser General Public License as published by
   the Free Software Foundation, either version 3 of the License, or
   (at your option) any later version.
   
   xtb is distributed in the hope that it will be useful,
   but WITHOUT ANY WARRANTY; without even the implied warranty of
   MERCHANTABILITY or FITNESS FOR A PARTICULAR PURPOSE.  See the
   GNU Lesser General Public License for more details.
   
   Cite this work as:
   * C. Bannwarth, E. Caldeweyher, S. Ehlert, A. Hansen, P. Pracht,
     J. Seibert, S. Spicher, S. Grimme, WIREs Comput. Mol. Sci., 2020, 11,
     e01493. DOI: 10.1002/wcms.1493
   
   for GFN2-xTB:
   * C. Bannwarth, S. Ehlert and S. Grimme., J. Chem. Theory Comput., 2019,
     15, 1652-1671. DOI: 10.1021/acs.jctc.8b01176
   for GFN1-xTB:
   * S. Grimme, C. Bannwarth, P. Shushkov, J. Chem. Theory Comput., 2017,
     13, 1989-2009. DOI: 10.1021/acs.jctc.7b00118
   for GFN0-xTB:
   * P. Pracht, E. Caldeweyher, S. Ehlert, S. Grimme, ChemRxiv, 2019, preprint.
     DOI: 10.26434/chemrxiv.8326202.v1
   for GFN-FF:
   * S. Spicher and S. Grimme, Angew. Chem. Int. Ed., 2020, 59, 15665-15673.
     DOI: 10.1002/anie.202004239
   
   for ALPB and GBSA implicit solvation:
   * S. Ehlert, M. Stahn, S. Spicher, S. Grimme, J. Chem. Theory Comput.,
     2021, 17, 4250-4261. DOI: 10.1021/acs.jctc.1c00471
   
   for DFT-D4:
   * E. Caldeweyher, C. Bannwarth and S. Grimme, J. Chem. Phys., 2017,
     147, 034112. DOI: 10.1063/1.4993215
   * E. Caldeweyher, S. Ehlert, A. Hansen, H. Neugebauer, S. Spicher,
     C. Bannwarth and S. Grimme, J. Chem. Phys., 2019, 150, 154122.
     DOI: 10.1063/1.5090222
   * E. Caldeweyher, J.-M. Mewes, S. Ehlert and S. Grimme, Phys. Chem. Chem. Phys.
     2020, 22, 8499-8512. DOI: 10.1039/D0CP00502A
   
   for sTDA-xTB:
   * S. Grimme and C. Bannwarth, J. Chem. Phys., 2016, 145, 054103.
     DOI: 10.1063/1.4959605
   
   in the mass-spec context:
   * V. Asgeirsson, C. Bauer and S. Grimme, Chem. Sci., 2017, 8, 4879.
     DOI: 10.1039/c7sc00601b
   * J. Koopman and S. Grimme, ACS Omega 2019, 4, 12, 15120-15133.
     DOI: 10.1021/acsomega.9b02011
   
   for metadynamics refer to:
   * S. Grimme, J. Chem. Theory Comput., 2019, 155, 2847-2862
     DOI: 10.1021/acs.jctc.9b00143
   
   for SPH calculations refer to:
   * S. Spicher and S. Grimme, J. Chem. Theory Comput., 2021, 17, 1701-1714
     DOI: 10.1021/acs.jctc.0c01306
   
   with help from (in alphabetical order)
   P. Atkinson, C. Bannwarth, F. Bohle, G. Brandenburg, E. Caldeweyher
   M. Checinski, S. Dohm, S. Ehlert, S. Ehrlich, I. Gerasimov, C. Hölzer
   A. Katbashev, J. Koopman, C. Lavigne, S. Lehtola, F. März, M. Müller,
   F. Musil, H. Neugebauer, J. Pisarek, C. Plett, P. Pracht, F. Pultar,
   J. Seibert, P. Shushkov, S. Spicher, M. Stahn, M. Steiner, T. Strunk,
   J. Stückrath, T. Rose, and J. Unsleber
   
 * started run on 2023/12/07 at 10:13:24.640     

           -------------------------------------------------
          |                Calculation Setup                |
           -------------------------------------------------

          program call               : otool_xtb /tmp/C00118_XTB.xyz --grad -c 0 -u 0 -P 1 --namespace /tmp/C00118 --input /tmp/C00118_XTB.input.tmp --acc 1.000000
          calculation namespace      : /tmp/C00118
          coordinate file            : /tmp/C00118_XTB.xyz
          omp threads                :                     1

   ID    Z sym.   atoms
    1    8 O      1, 4, 6, 8-10
    2    6 C      2, 3, 5
    3   15 P      7
    4    1 H      11-17

           -------------------------------------------------
          |                 G F N 2 - x T B                 |
           -------------------------------------------------

        Reference                      10.1021/acs.jctc.8b01176
      * Hamiltonian:
        H0-scaling (s, p, d)           1.850000    2.230000    2.230000
        zeta-weighting                 0.500000
      * Dispersion:
        s8                             2.700000
        a1                             0.520000
        a2                             5.000000
        s9                             5.000000
      * Repulsion:
        kExp                           1.500000    1.000000
        rExp                           1.000000
      * Coulomb:
        alpha                          2.000000
        third order                    shell-resolved
        anisotropic                    true
        a3                             3.000000
        a5                             4.000000
        cn-shift                       1.200000
        cn-exp                         4.000000
        max-rad                        5.000000

q/qsh data taken from xtbrestart
CAMM data taken from xtbrestart

          ...................................................
          :                      SETUP                      :
          :.................................................:
          :  # basis functions                  53          :
          :  # atomic orbitals                  52          :
          :  # shells                           28          :
          :  # electrons                        60          :
          :  max. iterations                   250          :
          :  Hamiltonian                  GFN2-xTB          :
          :  restarted?                       true          :
          :  GBSA solvation                  false          :
          :  PC potential                    false          :
          :  electronic temp.          300.0000000     K    :
          :  accuracy                    1.0000000          :
          :  -> integral cutoff          0.2500000E+02      :
          :  -> integral neglect         0.1000000E-07      :
          :  -> SCF convergence          0.1000000E-05 Eh   :
          :  -> wf. convergence          0.1000000E-03 e    :
          :  Broyden damping             0.4000000          :
          ...................................................

 iter      E             dE          RMSdq      gap      omega  full diag
   1    -37.2838668 -0.372839E+02  0.578E-01    3.46       0.0  T
   2    -37.2841050 -0.238202E-03  0.340E-01    3.50       1.0  T
   3    -37.2840242  0.807972E-04  0.139E-01    3.44       1.0  T
   4    -37.2841803 -0.156123E-03  0.231E-02    3.47       1.0  T
   5    -37.2841814 -0.103249E-05  0.726E-03    3.47       3.3  T
   6    -37.2841814 -0.603742E-07  0.287E-03    3.47       8.4  T
   7    -37.2841814 -0.100439E-07  0.112E-03    3.47      21.7  T
   8    -37.2841814 -0.158156E-08  0.384E-04    3.47      63.1  T
   9    -37.2841814 -0.300616E-09  0.140E-04    3.47     173.9  T

   *** convergence criteria satisfied after 9 iterations ***

         #    Occupation            Energy/Eh            Energy/eV
      -------------------------------------------------------------
         1        2.0000           -0.7528416             -20.4859
       ...           ...                  ...                  ...
        24        2.0000           -0.5007945             -13.6273
        25        2.0000           -0.4834900             -13.1564
        26        2.0000           -0.4724619             -12.8563
        27        2.0000           -0.4588369             -12.4856
        28        2.0000           -0.4545612             -12.3692
        29        2.0000           -0.4510212             -12.2729
        30        2.0000           -0.4181949             -11.3797 (HOMO)
        31                         -0.2905387              -7.9060 (LUMO)
        32                         -0.0702687              -1.9121
        33                         -0.0309491              -0.8422
        34                         -0.0217059              -0.5906
        35                          0.0113154               0.3079
       ...                                ...                  ...
        52                          1.1877993              32.3217
      -------------------------------------------------------------
                  HL-Gap            0.1276562 Eh            3.4737 eV
             Fermi-level           -0.3543668 Eh           -9.6428 eV

 SCC (total)                   0 d,  0 h,  0 min,  0.015 sec
 SCC setup                      ...        0 min,  0.000 sec (  0.930%)
 Dispersion                     ...        0 min,  0.000 sec (  0.555%)
 classical contributions        ...        0 min,  0.000 sec (  0.128%)
 integral evaluation            ...        0 min,  0.003 sec ( 17.170%)
 iterations                     ...        0 min,  0.005 sec ( 34.821%)
 molecular gradient             ...        0 min,  0.007 sec ( 45.741%)
 printout                       ...        0 min,  0.000 sec (  0.562%)

         :::::::::::::::::::::::::::::::::::::::::::::::::::::
         ::                     SUMMARY                     ::
         :::::::::::::::::::::::::::::::::::::::::::::::::::::
         :: total energy             -37.032366316650 Eh    ::
         :: gradient norm              0.021933833544 Eh/a0 ::
         :: HOMO-LUMO gap              3.473702146987 eV    ::
         ::.................................................::
         :: SCC energy               -37.284181446772 Eh    ::
         :: -> isotropic ES            0.152897679838 Eh    ::
         :: -> anisotropic ES         -0.007984766319 Eh    ::
         :: -> anisotropic XC         -0.001639315655 Eh    ::
         :: -> dispersion             -0.014996279569 Eh    ::
         :: repulsion energy           0.251754903548 Eh    ::
         :: add. restraining           0.000000000000 Eh    ::
         :: total charge              -0.000000000000 e     ::
         :::::::::::::::::::::::::::::::::::::::::::::::::::::


Property printout bound to 'properties.out'

           -------------------------------------------------
          | TOTAL ENERGY              -37.032366316650 Eh   |
          | GRADIENT NORM               0.021933833544 Eh/α |
          | HOMO-LUMO GAP               3.473702146987 eV   |
           -------------------------------------------------

------------------------------------------------------------------------
 * finished run on 2023/12/07 at 10:13:24.663     
------------------------------------------------------------------------
 total:
 * wall-time:     0 d,  0 h,  0 min,  0.023 sec
 *  cpu-time:     0 d,  0 h,  0 min,  0.020 sec
 * ratio c/w:     0.852 speedup
 SCF:
 * wall-time:     0 d,  0 h,  0 min,  0.015 sec
 *  cpu-time:     0 d,  0 h,  0 min,  0.016 sec
 * ratio c/w:     1.064 speedup


-------------------------   --------------------
FINAL SINGLE POINT ENERGY       -37.032366316650
-------------------------   --------------------

------------------------------------------------------------------------------
                         ORCA GEOMETRY RELAXATION STEP
------------------------------------------------------------------------------

Reading the OPT-File                    .... done
Getting information on internals        .... done
Copying old internal coords+grads       .... done
Making the new internal coordinates     .... (new redundants).... done
Validating the new internal coordinates .... (new redundants).... done
Calculating the B-matrix                .... done
Calculating the G,G- and P matrices     .... done
Transforming gradient to internals      .... done
Projecting the internal gradient        .... done
Number of atoms                         ....  17
Number of internal coordinates          ....  71
Current Energy                          ....   -37.032366317 Eh
Current gradient norm                   ....     0.021933834 Eh/bohr
Maximum allowed component of the step   ....  0.300
Current trust radius                    ....  0.300
Updating the Hessian (BFGS)             .... done
Forming the augmented Hessian           .... done
Diagonalizing the augmented Hessian     .... done
Last element of RFO vector              ....  0.982044998
Lowest eigenvalues of augmented Hessian:
 -0.004458111  0.009198811  0.011562530  0.012395682  0.014699601
Length of the computed step             ....  0.192095900
The final length of the internal step   ....  0.192095900
Converting the step to cartesian space:
 Initial RMS(Int)=    0.0227975890
Transforming coordinates:
 Iter   0:  RMS(Cart)=    0.0985435239 RMS(Int)=    0.0227611617
 Iter   1:  RMS(Cart)=    0.0028647922 RMS(Int)=    0.0017308330
 Iter   2:  RMS(Cart)=    0.0001572038 RMS(Int)=    0.0000695251
 Iter   3:  RMS(Cart)=    0.0000115030 RMS(Int)=    0.0000084491
 Iter   4:  RMS(Cart)=    0.0000006845 RMS(Int)=    0.0000004546
 Iter   5:  RMS(Cart)=    0.0000000606 RMS(Int)=    0.0000000497
done
Storing new coordinates                 .... done

                                .--------------------.
          ----------------------|Geometry convergence|-------------------------
          Item                value                   Tolerance       Converged
          ---------------------------------------------------------------------
          Energy change       0.0026576343            0.0000050000      NO
          RMS gradient        0.0040600979            0.0001000000      NO
          MAX gradient        0.0142448087            0.0003000000      NO
          RMS step            0.0227975890            0.0020000000      NO
          MAX step            0.0776282205            0.0040000000      NO
          ........................................................
          Max(Bonds)      0.0017      Max(Angles)    0.59
          Max(Dihed)        4.45      Max(Improp)    0.00
          ---------------------------------------------------------------------

The optimization has not yet converged - more geometry cycles are needed


    ---------------------------------------------------------------------------
                         Redundant Internal Coordinates
                            (Angstroem and degrees)

        Definition                    Value    dE/dq     Step     New-Value
    ----------------------------------------------------------------------------
     1. B(C   1,O   0)                1.2056  0.003281 -0.0004    1.2052   
     2. B(C   2,C   1)                1.5147  0.001097 -0.0003    1.5143   
     3. B(O   3,C   2)                1.3988  0.000856 -0.0004    1.3984   
     4. B(C   4,C   2)                1.5583  0.004913 -0.0017    1.5565   
     5. B(O   5,C   4)                1.4067  0.000636 -0.0000    1.4066   
     6. B(P   6,O   5)                1.6058  0.004168 -0.0009    1.6049   
     7. B(O   7,P   6)                1.4753  0.002234 -0.0002    1.4752   
     8. B(O   8,P   6)                1.5827 -0.001133  0.0003    1.5829   
     9. B(O   9,P   6)                1.5696 -0.002360  0.0003    1.5699   
    10. B(H  10,C   1)                1.1025 -0.000798  0.0002    1.1026   
    11. B(H  11,C   2)                1.0968 -0.000069  0.0001    1.0969   
    12. B(H  12,O   3)                0.9670 -0.000600  0.0002    0.9672   
    13. B(H  13,C   4)                1.0956  0.000403 -0.0002    1.0955   
    14. B(H  14,C   4)                1.0919  0.000112 -0.0002    1.0918   
    15. B(H  15,O   8)                0.9562  0.000092 -0.0000    0.9562   
    16. B(H  16,O   9)                0.9623  0.000695 -0.0001    0.9622   
    17. A(O   0,C   1,H  10)          121.49  0.001595    0.19    121.68   
    18. A(O   0,C   1,C   2)          124.07 -0.004252    0.34    124.41   
    19. A(C   2,C   1,H  10)          113.06  0.000497    0.26    113.32   
    20. A(C   1,C   2,C   4)          112.92  0.009881   -0.49    112.42   
    21. A(C   1,C   2,O   3)          111.59 -0.000616   -0.10    111.49   
    22. A(C   1,C   2,H  11)          106.12 -0.005012    0.31    106.44   
    23. A(O   3,C   2,H  11)          105.95  0.001364    0.14    106.09   
    24. A(C   4,C   2,H  11)          109.25 -0.001439    0.11    109.36   
    25. A(O   3,C   2,C   4)          110.65 -0.004742    0.08    110.73   
    26. A(C   2,O   3,H  12)          108.27  0.000624   -0.04    108.23   
    27. A(O   5,C   4,H  13)          110.02 -0.007389    0.17    110.19   
    28. A(H  13,C   4,H  14)          108.80  0.000918    0.14    108.94   
    29. A(C   2,C   4,O   5)          114.36  0.014245   -0.59    113.77   
    30. A(O   5,C   4,H  14)          106.15 -0.001723    0.08    106.23   
    31. A(C   2,C   4,H  13)          106.87  0.001676   -0.14    106.73   
    32. A(C   2,C   4,H  14)          110.57 -0.008301    0.38    110.95   
    33. A(C   4,O   5,P   6)          115.51  0.002256   -0.13    115.37   
    34. A(O   5,P   6,O   7)          112.63  0.000265   -0.03    112.59   
    35. A(O   8,P   6,O   9)          101.18 -0.001587    0.08    101.27   
    36. A(O   7,P   6,O   9)          119.04  0.002194   -0.08    118.96   
    37. A(O   5,P   6,O   9)          105.11  0.003668   -0.16    104.95   
    38. A(O   7,P   6,O   8)          113.02 -0.003003    0.13    113.15   
    39. A(O   5,P   6,O   8)          104.26 -0.001907    0.07    104.33   
    40. A(P   6,O   8,H  15)          110.82  0.000827   -0.04    110.78   
    41. A(P   6,O   9,H  16)          111.15 -0.002313    0.09    111.24   
    42. D(C   4,C   2,C   1,H  10)   -130.57 -0.003532    1.99   -128.57   
    43. D(H  11,C   2,C   1,H  10)    109.78 -0.004168    1.93    111.72   
    44. D(O   3,C   2,C   1,O   0)   -171.92  0.007334   -4.45   -176.36   
    45. D(O   3,C   2,C   1,H  10)     -5.18 -0.002616    1.64     -3.54   
    46. D(H  11,C   2,C   1,O   0)    -56.96  0.005782   -4.15    -61.11   
    47. D(C   4,C   2,C   1,O   0)     62.70  0.006417   -4.09     58.60   
    48. D(H  12,O   3,C   2,H  11)   -171.21  0.001016   -0.14   -171.35   
    49. D(H  12,O   3,C   2,C   4)     70.49  0.004438   -0.41     70.09   
    50. D(H  12,O   3,C   2,C   1)    -56.14 -0.004459    0.26    -55.88   
    51. D(H  13,C   4,C   2,O   3)    -18.18  0.001294   -0.69    -18.88   
    52. D(H  13,C   4,C   2,C   1)    107.71  0.004327   -1.14    106.57   
    53. D(O   5,C   4,C   2,H  11)    103.54  0.002272   -0.72    102.82   
    54. D(O   5,C   4,C   2,O   3)   -140.19  0.000347   -0.43   -140.62   
    55. D(H  13,C   4,C   2,H  11)   -134.45  0.003219   -0.98   -135.44   
    56. D(O   5,C   4,C   2,C   1)    -14.30  0.003379   -0.88    -15.17   
    57. D(H  14,C   4,C   2,H  11)    -16.19  0.000775   -0.69    -16.89   
    58. D(H  14,C   4,C   2,O   3)    100.08 -0.001151   -0.40     99.67   
    59. D(H  14,C   4,C   2,C   1)   -134.03  0.001882   -0.85   -134.88   
    60. D(P   6,O   5,C   4,H  14)   -164.72  0.008819   -3.84   -168.55   
    61. D(P   6,O   5,C   4,H  13)    -47.17  0.005119   -3.54    -50.71   
    62. D(P   6,O   5,C   4,C   2)     73.10  0.011617   -4.00     69.09   
    63. D(O   9,P   6,O   5,C   4)   -143.41 -0.000179   -1.19   -144.60   
    64. D(O   8,P   6,O   5,C   4)    110.57  0.000973   -1.25    109.32   
    65. D(O   7,P   6,O   5,C   4)    -12.33  0.005761   -1.43    -13.76   
    66. D(H  15,O   8,P   6,O   9)    113.28 -0.000798   -0.32    112.95   
    67. D(H  15,O   8,P   6,O   7)    -15.15 -0.000630   -0.37    -15.52   
    68. D(H  15,O   8,P   6,O   5)   -137.79  0.002041   -0.45   -138.24   
    69. D(H  16,O   9,P   6,O   8)    172.79  0.001512   -0.64    172.14   
    70. D(H  16,O   9,P   6,O   7)    -62.77 -0.002318   -0.45    -63.22   
    71. D(H  16,O   9,P   6,O   5)     64.51  0.003031   -0.70     63.82   
    ----------------------------------------------------------------------------

         *************************************************************
         *                GEOMETRY OPTIMIZATION CYCLE   3            *
         *************************************************************
---------------------------------
CARTESIAN COORDINATES (ANGSTROEM)
---------------------------------
  O    -0.700422   -0.016760   -2.115668
  C    -0.577284    0.901772   -1.345219
  C    -1.279464    0.997977   -0.006975
  O    -1.006089    2.213135    0.628762
  C    -0.943354   -0.200650    0.927429
  O    -0.348909   -1.288518    0.262729
  P     1.141862   -1.034722   -0.274871
  O     1.512679    0.393026   -0.264536
  O     2.054220   -1.921522    0.666882
  O     1.227197   -1.832516   -1.624253
  H    -0.027463    1.817879   -1.617690
  H    -2.355355    1.001959   -0.220608
  H    -0.046430    2.303577    0.708670
  H    -0.270231    0.182603    1.702106
  H    -1.845758   -0.589800    1.403008
  H     2.848388   -1.449068    0.912664
  H     0.616414   -1.478172   -2.277829

----------------------------
CARTESIAN COORDINATES (A.U.)
----------------------------
  NO LB    ZA    FRAG    MASS        X           Y           Z
   0 O   8.0000    0    15.999   -1.323606   -0.031672   -3.998033
   1 C   6.0000    0    12.011   -1.090909    1.704102   -2.542095
   2 C   6.0000    0    12.011   -2.417837    1.885904   -0.013180
   3 O   8.0000    0    15.999   -1.901233    4.182219    1.188189
   4 C   6.0000    0    12.011   -1.782681   -0.379174    1.752586
   5 O   8.0000    0    15.999   -0.659343   -2.434946    0.496485
   6 P  15.0000    0    30.974    2.157806   -1.955340   -0.519431
   7 O   8.0000    0    15.999    2.858548    0.742712   -0.499900
   8 O   8.0000    0    15.999    3.881913   -3.631150    1.260224
   9 O   8.0000    0    15.999    2.319066   -3.462953   -3.069394
  10 H   1.0000    0     1.008   -0.051898    3.435294   -3.056991
  11 H   1.0000    0     1.008   -4.450975    1.893428   -0.416890
  12 H   1.0000    0     1.008   -0.087740    4.353129    1.339193
  13 H   1.0000    0     1.008   -0.510662    0.345070    3.216514
  14 H   1.0000    0     1.008   -3.487977   -1.114561    2.651301
  15 H   1.0000    0     1.008    5.382673   -2.738342    1.724685
  16 H   1.0000    0     1.008    1.164853   -2.793341   -4.304473

      -----------------------------------------------------------      
     |                   =====================                   |     
     |                           x T B                           |     
     |                   =====================                   |     
     |                         S. Grimme                         |     
     |          Mulliken Center for Theoretical Chemistry        |     
     |                    University of Bonn                     |     
      -----------------------------------------------------------      

   * xtb version 6.5.1 (579679a) compiled by 'ehlert@majestix' on 2022-07-11

   xtb is free software: you can redistribute it and/or modify it under
   the terms of the GNU Lesser General Public License as published by
   the Free Software Foundation, either version 3 of the License, or
   (at your option) any later version.
   
   xtb is distributed in the hope that it will be useful,
   but WITHOUT ANY WARRANTY; without even the implied warranty of
   MERCHANTABILITY or FITNESS FOR A PARTICULAR PURPOSE.  See the
   GNU Lesser General Public License for more details.
   
   Cite this work as:
   * C. Bannwarth, E. Caldeweyher, S. Ehlert, A. Hansen, P. Pracht,
     J. Seibert, S. Spicher, S. Grimme, WIREs Comput. Mol. Sci., 2020, 11,
     e01493. DOI: 10.1002/wcms.1493
   
   for GFN2-xTB:
   * C. Bannwarth, S. Ehlert and S. Grimme., J. Chem. Theory Comput., 2019,
     15, 1652-1671. DOI: 10.1021/acs.jctc.8b01176
   for GFN1-xTB:
   * S. Grimme, C. Bannwarth, P. Shushkov, J. Chem. Theory Comput., 2017,
     13, 1989-2009. DOI: 10.1021/acs.jctc.7b00118
   for GFN0-xTB:
   * P. Pracht, E. Caldeweyher, S. Ehlert, S. Grimme, ChemRxiv, 2019, preprint.
     DOI: 10.26434/chemrxiv.8326202.v1
   for GFN-FF:
   * S. Spicher and S. Grimme, Angew. Chem. Int. Ed., 2020, 59, 15665-15673.
     DOI: 10.1002/anie.202004239
   
   for ALPB and GBSA implicit solvation:
   * S. Ehlert, M. Stahn, S. Spicher, S. Grimme, J. Chem. Theory Comput.,
     2021, 17, 4250-4261. DOI: 10.1021/acs.jctc.1c00471
   
   for DFT-D4:
   * E. Caldeweyher, C. Bannwarth and S. Grimme, J. Chem. Phys., 2017,
     147, 034112. DOI: 10.1063/1.4993215
   * E. Caldeweyher, S. Ehlert, A. Hansen, H. Neugebauer, S. Spicher,
     C. Bannwarth and S. Grimme, J. Chem. Phys., 2019, 150, 154122.
     DOI: 10.1063/1.5090222
   * E. Caldeweyher, J.-M. Mewes, S. Ehlert and S. Grimme, Phys. Chem. Chem. Phys.
     2020, 22, 8499-8512. DOI: 10.1039/D0CP00502A
   
   for sTDA-xTB:
   * S. Grimme and C. Bannwarth, J. Chem. Phys., 2016, 145, 054103.
     DOI: 10.1063/1.4959605
   
   in the mass-spec context:
   * V. Asgeirsson, C. Bauer and S. Grimme, Chem. Sci., 2017, 8, 4879.
     DOI: 10.1039/c7sc00601b
   * J. Koopman and S. Grimme, ACS Omega 2019, 4, 12, 15120-15133.
     DOI: 10.1021/acsomega.9b02011
   
   for metadynamics refer to:
   * S. Grimme, J. Chem. Theory Comput., 2019, 155, 2847-2862
     DOI: 10.1021/acs.jctc.9b00143
   
   for SPH calculations refer to:
   * S. Spicher and S. Grimme, J. Chem. Theory Comput., 2021, 17, 1701-1714
     DOI: 10.1021/acs.jctc.0c01306
   
   with help from (in alphabetical order)
   P. Atkinson, C. Bannwarth, F. Bohle, G. Brandenburg, E. Caldeweyher
   M. Checinski, S. Dohm, S. Ehlert, S. Ehrlich, I. Gerasimov, C. Hölzer
   A. Katbashev, J. Koopman, C. Lavigne, S. Lehtola, F. März, M. Müller,
   F. Musil, H. Neugebauer, J. Pisarek, C. Plett, P. Pracht, F. Pultar,
   J. Seibert, P. Shushkov, S. Spicher, M. Stahn, M. Steiner, T. Strunk,
   J. Stückrath, T. Rose, and J. Unsleber
   
 * started run on 2023/12/07 at 10:13:24.714     

           -------------------------------------------------
          |                Calculation Setup                |
           -------------------------------------------------

          program call               : otool_xtb /tmp/C00118_XTB.xyz --grad -c 0 -u 0 -P 1 --namespace /tmp/C00118 --input /tmp/C00118_XTB.input.tmp --acc 1.000000
          calculation namespace      : /tmp/C00118
          coordinate file            : /tmp/C00118_XTB.xyz
          omp threads                :                     1

   ID    Z sym.   atoms
    1    8 O      1, 4, 6, 8-10
    2    6 C      2, 3, 5
    3   15 P      7
    4    1 H      11-17

           -------------------------------------------------
          |                 G F N 2 - x T B                 |
           -------------------------------------------------

        Reference                      10.1021/acs.jctc.8b01176
      * Hamiltonian:
        H0-scaling (s, p, d)           1.850000    2.230000    2.230000
        zeta-weighting                 0.500000
      * Dispersion:
        s8                             2.700000
        a1                             0.520000
        a2                             5.000000
        s9                             5.000000
      * Repulsion:
        kExp                           1.500000    1.000000
        rExp                           1.000000
      * Coulomb:
        alpha                          2.000000
        third order                    shell-resolved
        anisotropic                    true
        a3                             3.000000
        a5                             4.000000
        cn-shift                       1.200000
        cn-exp                         4.000000
        max-rad                        5.000000

q/qsh data taken from xtbrestart
CAMM data taken from xtbrestart

          ...................................................
          :                      SETUP                      :
          :.................................................:
          :  # basis functions                  53          :
          :  # atomic orbitals                  52          :
          :  # shells                           28          :
          :  # electrons                        60          :
          :  max. iterations                   250          :
          :  Hamiltonian                  GFN2-xTB          :
          :  restarted?                       true          :
          :  GBSA solvation                  false          :
          :  PC potential                    false          :
          :  electronic temp.          300.0000000     K    :
          :  accuracy                    1.0000000          :
          :  -> integral cutoff          0.2500000E+02      :
          :  -> integral neglect         0.1000000E-07      :
          :  -> SCF convergence          0.1000000E-05 Eh   :
          :  -> wf. convergence          0.1000000E-03 e    :
          :  Broyden damping             0.4000000          :
          ...................................................

 iter      E             dE          RMSdq      gap      omega  full diag
   1    -37.2872168 -0.372872E+02  0.425E-01    3.67       0.0  T
   2    -37.2874029 -0.186107E-03  0.251E-01    3.63       1.0  T
   3    -37.2873720  0.309051E-04  0.101E-01    3.68       1.0  T
   4    -37.2874485 -0.765082E-04  0.201E-02    3.65       1.2  T
   5    -37.2874492 -0.681386E-06  0.510E-03    3.65       4.8  T
   6    -37.2874492 -0.615403E-07  0.230E-03    3.65      10.5  T
   7    -37.2874492 -0.741139E-08  0.898E-04    3.65      27.0  T
   8    -37.2874492 -0.111585E-08  0.289E-04    3.65      83.8  T

   *** convergence criteria satisfied after 8 iterations ***

         #    Occupation            Energy/Eh            Energy/eV
      -------------------------------------------------------------
         1        2.0000           -0.7524240             -20.4745
       ...           ...                  ...                  ...
        24        2.0000           -0.4990774             -13.5806
        25        2.0000           -0.4829487             -13.1417
        26        2.0000           -0.4723936             -12.8545
        27        2.0000           -0.4609743             -12.5437
        28        2.0000           -0.4548600             -12.3774
        29        2.0000           -0.4499714             -12.2443
        30        2.0000           -0.4146613             -11.2835 (HOMO)
        31                         -0.2804515              -7.6315 (LUMO)
        32                         -0.0678889              -1.8474
        33                         -0.0299966              -0.8163
        34                         -0.0183624              -0.4997
        35                          0.0131425               0.3576
       ...                                ...                  ...
        52                          1.2072593              32.8512
      -------------------------------------------------------------
                  HL-Gap            0.1342098 Eh            3.6520 eV
             Fermi-level           -0.3475564 Eh           -9.4575 eV

 SCC (total)                   0 d,  0 h,  0 min,  0.014 sec
 SCC setup                      ...        0 min,  0.000 sec (  0.959%)
 Dispersion                     ...        0 min,  0.000 sec (  0.566%)
 classical contributions        ...        0 min,  0.000 sec (  0.130%)
 integral evaluation            ...        0 min,  0.003 sec ( 17.795%)
 iterations                     ...        0 min,  0.005 sec ( 32.036%)
 molecular gradient             ...        0 min,  0.007 sec ( 47.712%)
 printout                       ...        0 min,  0.000 sec (  0.648%)

         :::::::::::::::::::::::::::::::::::::::::::::::::::::
         ::                     SUMMARY                     ::
         :::::::::::::::::::::::::::::::::::::::::::::::::::::
         :: total energy             -37.035270953482 Eh    ::
         :: gradient norm              0.006340375556 Eh/a0 ::
         :: HOMO-LUMO gap              3.652033571210 eV    ::
         ::.................................................::
         :: SCC energy               -37.287449225729 Eh    ::
         :: -> isotropic ES            0.153416981739 Eh    ::
         :: -> anisotropic ES         -0.009608757721 Eh    ::
         :: -> anisotropic XC         -0.002121791992 Eh    ::
         :: -> dispersion             -0.015187920761 Eh    ::
         :: repulsion energy           0.252119765095 Eh    ::
         :: add. restraining           0.000000000000 Eh    ::
         :: total charge              -0.000000000000 e     ::
         :::::::::::::::::::::::::::::::::::::::::::::::::::::


Property printout bound to 'properties.out'

           -------------------------------------------------
          | TOTAL ENERGY              -37.035270953482 Eh   |
          | GRADIENT NORM               0.006340375556 Eh/α |
          | HOMO-LUMO GAP               3.652033571210 eV   |
           -------------------------------------------------

------------------------------------------------------------------------
 * finished run on 2023/12/07 at 10:13:24.737     
------------------------------------------------------------------------
 total:
 * wall-time:     0 d,  0 h,  0 min,  0.023 sec
 *  cpu-time:     0 d,  0 h,  0 min,  0.020 sec
 * ratio c/w:     0.867 speedup
 SCF:
 * wall-time:     0 d,  0 h,  0 min,  0.015 sec
 *  cpu-time:     0 d,  0 h,  0 min,  0.012 sec
 * ratio c/w:     0.823 speedup


-------------------------   --------------------
FINAL SINGLE POINT ENERGY       -37.035270953480
-------------------------   --------------------

------------------------------------------------------------------------------
                         ORCA GEOMETRY RELAXATION STEP
------------------------------------------------------------------------------

Reading the OPT-File                    .... done
Getting information on internals        .... done
Copying old internal coords+grads       .... done
Making the new internal coordinates     .... (new redundants).... done
Validating the new internal coordinates .... (new redundants).... done
Calculating the B-matrix                .... done
Calculating the G,G- and P matrices     .... done
Transforming gradient to internals      .... done
Projecting the internal gradient        .... done
Number of atoms                         ....  17
Number of internal coordinates          ....  71
Current Energy                          ....   -37.035270953 Eh
Current gradient norm                   ....     0.006340376 Eh/bohr
Maximum allowed component of the step   ....  0.300
Current trust radius                    ....  0.300
Updating the Hessian (BFGS)             .... done
Forming the augmented Hessian           .... done
Diagonalizing the augmented Hessian     .... done
Last element of RFO vector              ....  0.976544792
Lowest eigenvalues of augmented Hessian:
 -0.000908811  0.009190629  0.011574700  0.012664973  0.014693436
Length of the computed step             ....  0.220485894
The final length of the internal step   ....  0.220485894
Converting the step to cartesian space:
 Initial RMS(Int)=    0.0261668615
Transforming coordinates:
 Iter   0:  RMS(Cart)=    0.1124019732 RMS(Int)=    0.0261608598
 Iter   1:  RMS(Cart)=    0.0046661888 RMS(Int)=    0.0029237820
 Iter   2:  RMS(Cart)=    0.0003926761 RMS(Int)=    0.0001065075
 Iter   3:  RMS(Cart)=    0.0000329936 RMS(Int)=    0.0000212880
 Iter   4:  RMS(Cart)=    0.0000028186 RMS(Int)=    0.0000009156
 Iter   5:  RMS(Cart)=    0.0000002378 RMS(Int)=    0.0000001628
 Iter   6:  RMS(Cart)=    0.0000000211 RMS(Int)=    0.0000000086
done
Storing new coordinates                 .... done

                                .--------------------.
          ----------------------|Geometry convergence|-------------------------
          Item                value                   Tolerance       Converged
          ---------------------------------------------------------------------
          Energy change      -0.0029046368            0.0000050000      NO
          RMS gradient        0.0008535507            0.0001000000      NO
          MAX gradient        0.0021781495            0.0003000000      NO
          RMS step            0.0261668615            0.0020000000      NO
          MAX step            0.0971075257            0.0040000000      NO
          ........................................................
          Max(Bonds)      0.0029      Max(Angles)    0.70
          Max(Dihed)        5.56      Max(Improp)    0.00
          ---------------------------------------------------------------------

The optimization has not yet converged - more geometry cycles are needed


    ---------------------------------------------------------------------------
                         Redundant Internal Coordinates
                            (Angstroem and degrees)

        Definition                    Value    dE/dq     Step     New-Value
    ----------------------------------------------------------------------------
     1. B(C   1,O   0)                1.2052 -0.000572  0.0005    1.2057   
     2. B(C   2,C   1)                1.5143  0.000352 -0.0004    1.5139   
[...]
     27       0.000104  -0.000797  -0.000061  -0.000289   0.000276   0.000739
     28       0.043826  -0.009509  -0.002940   0.000960   0.003536  -0.003039
     29       0.024600  -0.005893  -0.000958   0.001212   0.001247  -0.000794
     30      -0.001944  -0.033695  -0.073197  -0.001491   0.022377   0.019212
     31       0.002579  -0.137249   0.038972  -0.002252  -0.417154  -0.269210
     32       0.110670  -0.234175   0.074659   0.003059  -0.714111  -0.431800
     33      -0.038968  -0.166851  -0.196143  -0.098876  -0.115306   0.234709
     34      -0.204386  -0.508681  -0.491507  -0.283677  -0.166459   0.399977
     35       0.535212   0.116852   0.283247   0.026952  -0.171534   0.264876
     36       0.004089  -0.149883   0.012130   0.045939   0.177693  -0.225365
     37      -0.049414  -0.339101  -0.028860   0.083822   0.320690  -0.429298
     38       0.015501  -0.236330   0.013999   0.069859   0.292463  -0.361632
     39      -0.382569  -0.354923   0.251782   0.269942  -0.005360   0.103710
     40       0.197019   0.416389  -0.350419  -0.537156   0.028526  -0.212022
     41      -0.061142  -0.113212   0.132103   0.130225  -0.003530   0.055034
     42       0.316349   0.157778  -0.386006   0.312535  -0.041342   0.045404
     43      -0.278936  -0.220819   0.479235  -0.574095   0.083729  -0.042396
     44      -0.063165   0.013492  -0.109262   0.262607  -0.039241   0.008884
     45       0.088700  -0.020955  -0.007559   0.003896   0.004666  -0.003383
     46      -0.121191   0.027944   0.007601  -0.003079  -0.009516   0.007270
     47       0.050942  -0.011180  -0.002736  -0.000751   0.005133  -0.003124
     48       0.005563  -0.003153  -0.000404   0.000539   0.000773  -0.001717
     49      -0.168739   0.028625   0.011726  -0.002842  -0.018690   0.014999
     50      -0.088486   0.014488   0.007517  -0.000721  -0.009837   0.008621
                 42         43         44         45         46         47    
      0       0.000867  -0.095654   0.000999  -0.000055  -0.000149   0.000030
      1       0.004023  -0.438315   0.002857  -0.000557  -0.000342  -0.000050
      2       0.002358  -0.283591  -0.000181  -0.000255  -0.000038  -0.000202
      3      -0.002000   0.103025   0.029391  -0.002623   0.000825  -0.000077
      4      -0.004865   0.608389   0.063493   0.001374   0.001373  -0.000329
      5      -0.000077   0.438514  -0.033175   0.001695  -0.000422   0.000018
      6       0.002215  -0.000679   0.000978  -0.069831   0.004035  -0.001420
      7       0.002346  -0.036041   0.003292   0.030349   0.000888   0.000348
      8      -0.003103  -0.032023  -0.001127   0.002760   0.001321   0.002318
      9      -0.000512   0.001413  -0.000421  -0.001803  -0.000328  -0.000136
     10      -0.000632  -0.001494  -0.000521  -0.001541   0.000064   0.000100
     11       0.000386  -0.010104   0.000004  -0.000949  -0.000192  -0.000186
     12       0.066076  -0.003585  -0.000490  -0.000213   0.046933  -0.022084
     13       0.026018   0.015990  -0.001267   0.003464   0.045800   0.005024
     14      -0.030202   0.003495  -0.000552   0.000439   0.043014   0.071578
     15       0.017164   0.004822  -0.000327   0.000637   0.002926  -0.002914
     16      -0.000563  -0.005734  -0.000117  -0.000134  -0.000944   0.001238
     17      -0.005883  -0.001967   0.000198  -0.000057   0.000133   0.000734
     18      -0.001524   0.005814   0.000265  -0.000067  -0.000087   0.000161
     19      -0.001510   0.012292   0.000398  -0.000056   0.000057   0.000091
     20       0.002327   0.006464  -0.000154  -0.000018   0.000319   0.000016
     21       0.000055   0.000987  -0.000027   0.000192  -0.000107   0.000054
     22       0.001929  -0.018378  -0.000623   0.000041  -0.000022  -0.000021
     23      -0.000664   0.001022   0.000298   0.000111  -0.000101  -0.000105
     24      -0.000176   0.000125  -0.000021   0.000027  -0.000082   0.000052
     25       0.000148  -0.003080  -0.000119   0.000028  -0.000058  -0.000001
     26      -0.000446  -0.000463   0.000077   0.000022  -0.000111  -0.000018
     27      -0.000091  -0.003119  -0.000026  -0.000060  -0.000020  -0.000106
     28      -0.000128  -0.003640  -0.000245   0.000077  -0.000091   0.000029
     29      -0.000256  -0.003614   0.000140  -0.000075  -0.000059  -0.000052
     30       0.003512   0.132590  -0.383928   0.002077  -0.006357   0.001304
     31      -0.007388   0.173017  -0.821016   0.006661  -0.013180   0.003750
     32      -0.005225  -0.262934   0.414843  -0.004065   0.007570  -0.001944
     33       0.005086   0.003515   0.008694   0.922019  -0.034532   0.015674
     34       0.004648   0.038828  -0.002187  -0.375691   0.014463  -0.006403
     35       0.000326  -0.051454  -0.002296  -0.029105   0.000657  -0.000829
     36      -0.001621   0.009091  -0.002259  -0.012072   0.001759   0.001080
     37      -0.000408   0.005312   0.000855   0.005163  -0.001063  -0.000364
     38      -0.004544  -0.005869  -0.004173  -0.001417  -0.000164   0.000945
     39      -0.612418  -0.022047   0.000145  -0.003368   0.038269   0.271479
     40      -0.316645  -0.087676   0.000484   0.002596   0.017004  -0.116086
     41      -0.156221   0.011004  -0.003837   0.015439  -0.042843  -0.948691
     42      -0.414944  -0.018980   0.010067  -0.025104  -0.649070   0.033559
     43       0.008340   0.000302   0.008583  -0.022161  -0.570450   0.036769
     44       0.566976   0.049412   0.010360  -0.020796  -0.491775   0.066069
     45      -0.001128  -0.011716  -0.000183   0.000302  -0.000442  -0.000056
     46       0.001063   0.011811  -0.000055  -0.000478   0.000869  -0.000415
     47       0.000052  -0.005809  -0.000500   0.000031   0.000580  -0.000041
     48       0.003712   0.003192   0.000479   0.000955   0.000307   0.000939
     49       0.000971  -0.059718   0.000851  -0.000545   0.000050  -0.000704
     50      -0.003596  -0.077011  -0.002860   0.001255  -0.001260   0.000568
                 48         49         50    
      0       0.000183  -0.000098  -0.000022
      1      -0.000291  -0.001133  -0.000006
      2      -0.000178  -0.000964  -0.000023
      3      -0.000884   0.000958   0.000135
      4       0.000382   0.001158  -0.000081
      5       0.000507   0.001359   0.000056
      6       0.003226   0.000037  -0.000003
      7       0.001098  -0.000121  -0.000090
      8       0.000763  -0.000183  -0.000026
      9       0.057974  -0.001657  -0.000186
     10      -0.011781   0.000324   0.000100
     11      -0.017856   0.000377   0.000116
     12      -0.000389   0.000554   0.000217
     13       0.000205  -0.000221  -0.000043
     14      -0.000025  -0.000098  -0.000000
     15       0.000647  -0.000574  -0.000425
     16      -0.000003   0.000317   0.000123
     17      -0.000419   0.000500   0.000037
     18      -0.000597  -0.000186   0.000104
     19      -0.000953  -0.000403   0.000299
     20       0.000448  -0.000556   0.000164
     21       0.000758  -0.000290  -0.000129
     22       0.001402   0.000858   0.000356
     23       0.000049  -0.000077  -0.000127
     24       0.000207   0.000258   0.035997
     25       0.000432  -0.000123   0.039651
     26      -0.000051   0.000381   0.032453
     27      -0.000995  -0.041656  -0.000250
     28       0.000960   0.019819  -0.000186
     29      -0.001187  -0.042461  -0.000407
     30       0.000532  -0.000693   0.000100
     31       0.000574  -0.001637   0.000260
     32       0.000360  -0.000311  -0.000091
     33      -0.007970  -0.001255  -0.000111
     34       0.003730   0.000670   0.000031
     35      -0.000677   0.000260   0.000002
     36      -0.946850   0.026527   0.003343
     37       0.168013  -0.006049  -0.001601
     38       0.265543  -0.007529  -0.001806
     39       0.000852  -0.000643  -0.000184
     40      -0.000533   0.000536  -0.000026
     41      -0.000863   0.000902   0.000227
     42      -0.000779  -0.000072  -0.000741
     43      -0.002033  -0.000617  -0.000154
     44      -0.000071  -0.000060  -0.000223
     45      -0.001579   0.001402  -0.566276
     46      -0.003870   0.002533  -0.640647
     47      -0.000636   0.001774  -0.514739
     48       0.018014   0.660646   0.001217
     49      -0.009348  -0.311180  -0.000008
     50       0.019477   0.679673   0.002575


-----------
IR SPECTRUM
-----------

 Mode   freq       eps      Int      T**2         TX        TY        TZ
       cm**-1   L/(mol*cm) km/mol    a.u.
----------------------------------------------------------------------------
  6:     73.21   0.000832    4.20  0.003546  ( 0.059298 -0.003335  0.004329)
  7:    116.94   0.000686    3.47  0.001831  (-0.037198 -0.002726  0.020978)
  8:    128.79   0.012886   65.12  0.031224  (-0.026171 -0.042173  0.169590)
  9:    139.80   0.004162   21.03  0.009291  (-0.068959 -0.028691  0.060929)
 10:    193.58   0.000202    1.02  0.000325  ( 0.017250 -0.000959  0.005167)
 11:    200.94   0.002453   12.40  0.003809  ( 0.038746 -0.018583  0.044302)
 12:    251.65   0.005789   29.26  0.007179  ( 0.079591 -0.006507  0.028318)
 13:    271.08   0.007155   36.16  0.008236  (-0.080900 -0.027178 -0.030870)
 14:    305.25   0.009278   46.89  0.009485  (-0.082128  0.009931  0.051391)
 15:    346.82   0.002017   10.19  0.001815  (-0.023662  0.034888  0.006171)
 16:    375.89   0.004872   24.62  0.004045  ( 0.030788  0.002818 -0.055580)
 17:    401.84   0.008668   43.80  0.006731  (-0.062340  0.005791  0.053025)
 18:    407.79   0.021030  106.28  0.016093  (-0.087683 -0.066766 -0.062828)
 19:    423.16   0.027505  139.00  0.020284  (-0.071094 -0.045693  0.114637)
 20:    476.61   0.028893  146.01  0.018918  (-0.127720  0.046170  0.021771)
 21:    548.02   0.019004   96.04  0.010822  (-0.012653  0.062915 -0.081873)
 22:    557.87   0.017508   88.48  0.009794  ( 0.011074 -0.064290  0.074416)
 23:    692.92   0.005804   29.33  0.002614  (-0.048187 -0.015314  0.007558)
 24:    728.98   0.031545  159.42  0.013504  (-0.062166 -0.033061  0.092447)
 25:    828.40   0.001435    7.25  0.000541  ( 0.015180  0.013870  0.010855)
 26:    839.55   0.014064   71.07  0.005228  (-0.056368 -0.013905  0.043091)
 27:    873.88   0.042058  212.54  0.015019  ( 0.075492  0.009720  0.096050)
 28:    897.69   0.002093   10.58  0.000727  (-0.012332 -0.009743 -0.021920)
 29:    907.41   0.027385  138.39  0.009418  (-0.044905 -0.013116 -0.085026)
 30:    943.43   0.004062   20.53  0.001344  (-0.008728 -0.035591 -0.000916)
 31:    952.42   0.122933  621.25  0.040279  ( 0.112945 -0.151663 -0.067239)
 32:   1022.66   0.028685  144.96  0.008753  (-0.056694  0.060879  0.042810)
 33:   1104.56   0.011551   58.38  0.003264  ( 0.041785 -0.029986 -0.024868)
 34:   1135.01   0.022760  115.02  0.006258  (-0.070092 -0.026901 -0.024925)
 35:   1172.27   0.020753  104.88  0.005525  (-0.003563  0.074030  0.005610)
 36:   1198.39   0.076392  386.05  0.019893  ( 0.005828 -0.133665  0.044637)
 37:   1223.05   0.005112   25.83  0.001304  (-0.003126  0.033103  0.014099)
 38:   1238.12   0.003290   16.62  0.000829  (-0.023843 -0.000451 -0.016138)
 39:   1310.63   0.003507   17.72  0.000835  ( 0.013105  0.025270  0.004976)
 40:   1325.46   0.008964   45.30  0.002111  (-0.002880  0.005776  0.045485)
 41:   1341.35   0.021694  109.63  0.005047  (-0.028957 -0.061731 -0.019949)
 42:   1442.34   0.005794   29.28  0.001254  (-0.011692 -0.033381  0.001636)
 43:   1735.62   0.051482  260.17  0.009256  ( 0.021599  0.062442  0.069934)
 44:   2849.79   0.010048   50.78  0.001100  ( 0.005194  0.029834 -0.013536)
 45:   2886.29   0.002144   10.83  0.000232  (-0.015093  0.001134 -0.001631)
 46:   2931.57   0.006528   32.99  0.000695  ( 0.017672  0.017576  0.008582)
 47:   2966.60   0.002142   10.83  0.000225  (-0.001941  0.002104  0.014736)
 48:   3382.65   0.033723  170.42  0.003111  (-0.040162  0.026302  0.028394)
 49:   3483.94   0.022861  115.53  0.002048  ( 0.029931 -0.021417  0.026327)
 50:   3619.00   0.009194   46.46  0.000793  (-0.024171 -0.012508 -0.007216)

* The epsilon (eps) is given for a Dirac delta lineshape.
** The dipole moment derivative (T) already includes vibrational overlap.

The first frequency considered to be a vibration is 6
The total number of vibrations considered is 45


--------------------------
THERMOCHEMISTRY AT 298.15K
--------------------------

Temperature         ... 298.15 K
Pressure            ... 1.00 atm
Total Mass          ... 170.06 AMU

Throughout the following assumptions are being made:
  (1) The electronic state is orbitally nondegenerate
  (2) There are no thermally accessible electronically excited states
  (3) Hindered rotations indicated by low frequency modes are not
      treated as such but are treated as vibrations and this may
      cause some error
  (4) All equations used are the standard statistical mechanics
      equations for an ideal gas
  (5) All vibrations are strictly harmonic

freq.      73.21  E(vib)   ...       0.49 
freq.     116.94  E(vib)   ...       0.44 
freq.     128.79  E(vib)   ...       0.43 
freq.     139.80  E(vib)   ...       0.41 
freq.     193.58  E(vib)   ...       0.36 
freq.     200.94  E(vib)   ...       0.35 
freq.     251.65  E(vib)   ...       0.30 
freq.     271.08  E(vib)   ...       0.29 
freq.     305.25  E(vib)   ...       0.26 
freq.     346.82  E(vib)   ...       0.23 
freq.     375.89  E(vib)   ...       0.21 
freq.     401.84  E(vib)   ...       0.19 
freq.     407.79  E(vib)   ...       0.19 
freq.     423.16  E(vib)   ...       0.18 
freq.     476.61  E(vib)   ...       0.15 
freq.     548.02  E(vib)   ...       0.12 
freq.     557.87  E(vib)   ...       0.12 
freq.     692.92  E(vib)   ...       0.07 
freq.     728.98  E(vib)   ...       0.06 
freq.     828.40  E(vib)   ...       0.04 
freq.     839.55  E(vib)   ...       0.04 
freq.     873.88  E(vib)   ...       0.04 
freq.     897.69  E(vib)   ...       0.03 
freq.     907.41  E(vib)   ...       0.03 
freq.     943.43  E(vib)   ...       0.03 
freq.     952.42  E(vib)   ...       0.03 
freq.    1022.66  E(vib)   ...       0.02 
freq.    1104.56  E(vib)   ...       0.02 
freq.    1135.01  E(vib)   ...       0.01 
freq.    1172.27  E(vib)   ...       0.01 
freq.    1198.39  E(vib)   ...       0.01 
freq.    1223.05  E(vib)   ...       0.01 
freq.    1238.12  E(vib)   ...       0.01 
freq.    1310.63  E(vib)   ...       0.01 
freq.    1325.46  E(vib)   ...       0.01 
freq.    1341.35  E(vib)   ...       0.01 
freq.    1442.34  E(vib)   ...       0.00 
freq.    1735.62  E(vib)   ...       0.00 
freq.    2849.79  E(vib)   ...       0.00 
freq.    2886.29  E(vib)   ...       0.00 
freq.    2931.57  E(vib)   ...       0.00 
freq.    2966.60  E(vib)   ...       0.00 
freq.    3382.65  E(vib)   ...       0.00 
freq.    3483.94  E(vib)   ...       0.00 
freq.    3619.00  E(vib)   ...       0.00 

------------
INNER ENERGY
------------

The inner energy is: U= E(el) + E(ZPE) + E(vib) + E(rot) + E(trans)
    E(el)   - is the total energy from the electronic structure calculation
              = E(kin-el) + E(nuc-el) + E(el-el) + E(nuc-nuc)
    E(ZPE)  - the the zero temperature vibrational energy from the frequency calculation
    E(vib)  - the the finite temperature correction to E(ZPE) due to population
              of excited vibrational states
    E(rot)  - is the rotational thermal energy
    E(trans)- is the translational thermal energy

Summary of contributions to the inner energy U:
Electronic energy                ...    -37.03976741 Eh
Zero point energy                ...      0.11448528 Eh      71.84 kcal/mol
Thermal vibrational correction   ...      0.00832648 Eh       5.22 kcal/mol
Thermal rotational correction    ...      0.00141627 Eh       0.89 kcal/mol
Thermal translational correction ...      0.00141627 Eh       0.89 kcal/mol
-----------------------------------------------------------------------
Total thermal energy                    -36.91412311 Eh


Summary of corrections to the electronic energy:
(perhaps to be used in another calculation)
Total thermal correction                  0.01115902 Eh       7.00 kcal/mol
Non-thermal (ZPE) correction              0.11448528 Eh      71.84 kcal/mol
-----------------------------------------------------------------------
Total correction                          0.12564430 Eh      78.84 kcal/mol


--------
ENTHALPY
--------

The enthalpy is H = U + kB*T
                kB is Boltzmann's constant
Total free energy                 ...    -36.91412311 Eh 
Thermal Enthalpy correction       ...      0.00094421 Eh       0.59 kcal/mol
-----------------------------------------------------------------------
Total Enthalpy                    ...    -36.91317890 Eh


Note: Only C1 symmetry has been detected, increase convergence thresholds 
      if your molecule has a higher symmetry. Symmetry factor of 1.0 is   
      used for the rotational entropy correction. 
 

Note: Rotational entropy computed according to Herzberg 
Infrared and Raman Spectra, Chapter V,1, Van Nostrand Reinhold, 1945 
Point Group:  C1, Symmetry Number:   1  
Rotational constants in cm-1:     0.062729     0.036044     0.031602 

Vibrational entropy computed according to the QRRHO of S. Grimme
Chem.Eur.J. 2012 18 9955


-------
ENTROPY
-------

The entropy contributions are T*S = T*(S(el)+S(vib)+S(rot)+S(trans))
     S(el)   - electronic entropy
     S(vib)  - vibrational entropy
     S(rot)  - rotational entropy
     S(trans)- translational entropy
The entropies will be listed as multiplied by the temperature to get
units of energy

Electronic entropy                ...      0.00000000 Eh      0.00 kcal/mol
Vibrational entropy               ...      0.01420280 Eh      8.91 kcal/mol
Rotational entropy                ...      0.01401761 Eh      8.80 kcal/mol
Translational entropy             ...      0.01962323 Eh     12.31 kcal/mol
-----------------------------------------------------------------------
Final entropy term                ...      0.04784364 Eh     30.02 kcal/mol

In case the symmetry of your molecule has not been determined correctly
or in case you have a reason to use a different symmetry number we print 
out the resulting rotational entropy values for sn=1,12 :
 --------------------------------------------------------
|  sn= 1 | S(rot)=       0.01401761 Eh      8.80 kcal/mol|
|  sn= 2 | S(rot)=       0.01336315 Eh      8.39 kcal/mol|
|  sn= 3 | S(rot)=       0.01298032 Eh      8.15 kcal/mol|
|  sn= 4 | S(rot)=       0.01270869 Eh      7.97 kcal/mol|
|  sn= 5 | S(rot)=       0.01249801 Eh      7.84 kcal/mol|
|  sn= 6 | S(rot)=       0.01232586 Eh      7.73 kcal/mol|
|  sn= 7 | S(rot)=       0.01218031 Eh      7.64 kcal/mol|
|  sn= 8 | S(rot)=       0.01205424 Eh      7.56 kcal/mol|
|  sn= 9 | S(rot)=       0.01194303 Eh      7.49 kcal/mol|
|  sn=10 | S(rot)=       0.01184355 Eh      7.43 kcal/mol|
|  sn=11 | S(rot)=       0.01175356 Eh      7.38 kcal/mol|
|  sn=12 | S(rot)=       0.01167140 Eh      7.32 kcal/mol|
 --------------------------------------------------------


-------------------
GIBBS FREE ENERGY
-------------------

The Gibbs free energy is G = H - T*S

Total enthalpy                    ...    -36.91317890 Eh 
Total entropy correction          ...     -0.04784364 Eh    -30.02 kcal/mol
-----------------------------------------------------------------------
Final Gibbs free energy         ...    -36.96102254 Eh

For completeness - the Gibbs free energy minus the electronic energy
G-E(el)                           ...      0.07874487 Eh     49.41 kcal/mol



Timings for individual modules:

Sum of individual times         ...      249.848 sec (=   4.164 min)
Geometry relaxation             ...        1.461 sec (=   0.024 min)   0.6 %
Numerical frequency calculation ...      247.008 sec (=   4.117 min)  98.9 %
XTB module                      ...        1.380 sec (=   0.023 min)   0.6 %
                             ****ORCA TERMINATED NORMALLY****
TOTAL RUN TIME: 0 days 0 hours 4 minutes 11 seconds 162 msec
