
                                 *****************
                                 * O   R   C   A *
                                 *****************

                                            #,                                       
                                            ###                                      
                                            ####                                     
                                            #####                                    
                                            ######                                   
                                           ########,                                 
                                     ,,################,,,,,                         
                               ,,#################################,,                 
                          ,,##########################################,,             
                       ,#########################################, ''#####,          
                    ,#############################################,,   '####,        
                  ,##################################################,,,,####,       
                ,###########''''           ''''###############################       
              ,#####''   ,,,,##########,,,,          '''####'''          '####       
            ,##' ,,,,###########################,,,                        '##       
           ' ,,###''''                  '''############,,,                           
         ,,##''                                '''############,,,,        ,,,,,,###''
      ,#''                                            '''#######################'''  
     '                                                          ''''####''''         
             ,#######,   #######,   ,#######,      ##                                
            ,#'     '#,  ##    ##  ,#'     '#,    #''#        ######   ,####,        
            ##       ##  ##   ,#'  ##            #'  '#       #        #'  '#        
            ##       ##  #######   ##           ,######,      #####,   #    #        
            '#,     ,#'  ##    ##  '#,     ,#' ,#      #,         ##   #,  ,#        
             '#######'   ##     ##  '#######'  #'      '#     #####' # '####'        



                  #######################################################
                  #                        -***-                        #
                  #          Department of theory and spectroscopy      #
                  #    Directorship and core code : Frank Neese         #
                  #        Max Planck Institute fuer Kohlenforschung    #
                  #                Kaiser Wilhelm Platz 1               #
                  #                 D-45470 Muelheim/Ruhr               #
                  #                      Germany                        #
                  #                                                     #
                  #                  All rights reserved                #
                  #                        -***-                        #
                  #######################################################


                         Program Version 5.0.3 -  RELEASE  -


 With contributions from (in alphabetic order):
   Daniel Aravena         : Magnetic Suceptibility
   Michael Atanasov       : Ab Initio Ligand Field Theory (pilot matlab implementation)
   Alexander A. Auer      : GIAO ZORA, VPT2 properties, NMR spectrum
   Ute Becker             : Parallelization
   Giovanni Bistoni       : ED, misc. LED, open-shell LED, HFLD
   Martin Brehm           : Molecular dynamics
   Dmytro Bykov           : SCF Hessian
   Vijay G. Chilkuri      : MRCI spin determinant printing, contributions to CSF-ICE
   Dipayan Datta          : RHF DLPNO-CCSD density
   Achintya Kumar Dutta   : EOM-CC, STEOM-CC
   Dmitry Ganyushin       : Spin-Orbit,Spin-Spin,Magnetic field MRCI
   Miquel Garcia          : C-PCM and meta-GGA Hessian, CC/C-PCM, Gaussian charge scheme
   Yang Guo               : DLPNO-NEVPT2, F12-NEVPT2, CIM, IAO-localization
   Andreas Hansen         : Spin unrestricted coupled pair/coupled cluster methods
   Benjamin Helmich-Paris : MC-RPA, TRAH-SCF, COSX integrals
   Lee Huntington         : MR-EOM, pCC
   Robert Izsak           : Overlap fitted RIJCOSX, COSX-SCS-MP3, EOM
   Marcus Kettner         : VPT2
   Christian Kollmar      : KDIIS, OOCD, Brueckner-CCSD(T), CCSD density, CASPT2, CASPT2-K
   Simone Kossmann        : Meta GGA functionals, TD-DFT gradient, OOMP2, MP2 Hessian
   Martin Krupicka        : Initial AUTO-CI
   Lucas Lang             : DCDCAS
   Marvin Lechner         : AUTO-CI (C++ implementation), FIC-MRCC
   Dagmar Lenk            : GEPOL surface, SMD
   Dimitrios Liakos       : Extrapolation schemes; Compound Job, initial MDCI parallelization
   Dimitrios Manganas     : Further ROCIS development; embedding schemes
   Dimitrios Pantazis     : SARC Basis sets
   Anastasios Papadopoulos: AUTO-CI, single reference methods and gradients
   Taras Petrenko         : DFT Hessian,TD-DFT gradient, ASA, ECA, R-Raman, ABS, FL, XAS/XES, NRVS
   Peter Pinski           : DLPNO-MP2, DLPNO-MP2 Gradient
   Christoph Reimann      : Effective Core Potentials
   Marius Retegan         : Local ZFS, SOC
   Christoph Riplinger    : Optimizer, TS searches, QM/MM, DLPNO-CCSD(T), (RO)-DLPNO pert. Triples
   Tobias Risthaus        : Range-separated hybrids, TD-DFT gradient, RPA, STAB
   Michael Roemelt        : Original ROCIS implementation
   Masaaki Saitow         : Open-shell DLPNO-CCSD energy and density
   Barbara Sandhoefer     : DKH picture change effects
   Avijit Sen             : IP-ROCIS
   Kantharuban Sivalingam : CASSCF convergence, NEVPT2, FIC-MRCI
   Bernardo de Souza      : ESD, SOC TD-DFT
   Georgi Stoychev        : AutoAux, RI-MP2 NMR, DLPNO-MP2 response
   Willem Van den Heuvel  : Paramagnetic NMR
   Boris Wezisla          : Elementary symmetry handling
   Frank Wennmohs         : Technical directorship


 We gratefully acknowledge several colleagues who have allowed us to
 interface, adapt or use parts of their codes:
   Stefan Grimme, W. Hujo, H. Kruse, P. Pracht,  : VdW corrections, initial TS optimization,
                  C. Bannwarth, S. Ehlert          DFT functionals, gCP, sTDA/sTD-DF
   Ed Valeev, F. Pavosevic, A. Kumar             : LibInt (2-el integral package), F12 methods
   Garnet Chan, S. Sharma, J. Yang, R. Olivares  : DMRG
   Ulf Ekstrom                                   : XCFun DFT Library
   Mihaly Kallay                                 : mrcc  (arbitrary order and MRCC methods)
   Jiri Pittner, Ondrej Demel                    : Mk-CCSD
   Frank Weinhold                                : gennbo (NPA and NBO analysis)
   Christopher J. Cramer and Donald G. Truhlar   : smd solvation model
   Lars Goerigk                                  : TD-DFT with DH, B97 family of functionals
   V. Asgeirsson, H. Jonsson                     : NEB implementation
   FAccTs GmbH                                   : IRC, NEB, NEB-TS, DLPNO-Multilevel, CI-OPT
                                                   MM, QMMM, 2- and 3-layer-ONIOM, Crystal-QMMM,
                                                   LR-CPCM, SF, NACMEs, symmetry and pop. for TD-DFT,
                                                   nearIR, NL-DFT gradient (VV10), updates on ESD,
                                                   ML-optimized integration grids
   S Lehtola, MJT Oliveira, MAL Marques          : LibXC Library
   Liviu Ungur et al                             : ANISO software


 Your calculation uses the libint2 library for the computation of 2-el integrals
 For citations please refer to: http://libint.valeyev.net

 Your ORCA version has been built with support for libXC version: 5.1.0
 For citations please refer to: https://tddft.org/programs/libxc/

 This ORCA versions uses:
   CBLAS   interface :  Fast vector & matrix operations
   LAPACKE interface :  Fast linear algebra routines
   SCALAPACK package :  Parallel linear algebra routines
   Shared memory     :  Shared parallel matrices
   BLAS/LAPACK       :  OpenBLAS 0.3.15  USE64BITINT DYNAMIC_ARCH NO_AFFINITY Haswell SINGLE_THREADED
        Core in use  :  Haswell
   Copyright (c) 2011-2014, The OpenBLAS Project


Your calculation utilizes the semiempirical GFN2-xTB method
Please cite in your paper:
C. Bannwarth, Ehlert S., S. Grimme,  J. Chem. Theory Comput., 15, (2019), 1652.
   

================================================================================

================================================================================
                                        WARNINGS
                       Please study these warnings very carefully!
================================================================================


WARNING: Geometry Optimization
  ===> : Switching off AutoStart
         For restart on a previous wavefunction, please use MOREAD

WARNING: Found dipole moment calculation with XTB calculation
  ===> : Switching off dipole moment calculation


WARNING: TRAH-SCF for XTB is not implemented!
  ===> : Turning TRAH off!

================================================================================
                                       INPUT FILE
================================================================================
NAME = /tmp/C00345.inp
|  1> ! XTB2 opt numfreq
|  2> * XYZ 0 1
|  3> O -3.6485 1.4324 0.9209
|  4> C -2.5701 1.5817 0.3644
|  5> O -1.5395 2.1808 0.9889
|  6> C -2.2317 1.1233 -1.0453
|  7> O -3.2911 1.5398 -1.9249
|  8> C -2.0890 -0.4126 -1.0810
|  9> O -1.8848 -0.8578 -2.4334
| 10> C -0.9729 -1.0020 -0.1828
| 11> O -1.3228 -0.9250 1.1993
| 12> C 0.4102 -0.3556 -0.4077
| 13> O 0.7058 -0.3048 -1.8127
| 14> C 1.5159 -1.1392 0.3108
| 15> O 2.7690 -0.5054 0.0609
| 16> P 3.3337 0.4614 1.2034
| 17> O 2.4026 1.4989 1.7212
| 18> O 4.7072 0.9977 0.6019
| 19> O 3.8644 -0.5171 2.3457
| 20> H -1.8702 2.3996 1.8848
| 21> H -1.3305 1.6269 -1.4065
| 22> H -4.0963 1.0663 -1.6481
| 23> H -3.0462 -0.8513 -0.7716
| 24> H -0.9829 -0.5625 -2.6871
| 25> H -0.8853 -2.0675 -0.4346
| 26> H -2.1420 -1.4387 1.3293
| 27> H 0.4203 0.6755 -0.0417
| 28> H 1.6495 -0.0528 -1.8747
| 29> H 1.3297 -1.2142 1.3873
| 30> H 1.5915 -2.1526 -0.0967
| 31> H 5.2869 0.2623 0.3355
| 32> H 3.9170 -0.0375 3.1946
| 33> *
| 34> 
| 35>                          ****END OF INPUT****
================================================================================

                       *****************************
                       * Geometry Optimization Run *
                       *****************************

Geometry optimization settings:
Update method            Update   .... BFGS
Choice of coordinates    CoordSys .... Z-matrix Internals
Initial Hessian          InHess   .... Almoef's Model

Convergence Tolerances:
Energy Change            TolE     ....  5.0000e-06 Eh
Max. Gradient            TolMAXG  ....  3.0000e-04 Eh/bohr
RMS Gradient             TolRMSG  ....  1.0000e-04 Eh/bohr
Max. Displacement        TolMAXD  ....  4.0000e-03 bohr
RMS Displacement         TolRMSD  ....  2.0000e-03 bohr
Strict Convergence                ....  False
------------------------------------------------------------------------------
                        ORCA OPTIMIZATION COORDINATE SETUP
------------------------------------------------------------------------------

The optimization will be done in new redundant internal coordinates
Making redundant internal coordinates   ...  (new redundants) done
Evaluating the initial hessian          ...  (Almloef) done
Evaluating the coordinates              ...  done
Calculating the B-matrix                .... done
Calculating the G-matrix                .... done
Diagonalizing the G-matrix              .... done
Small eigenvalue found = 5.644e-03
Small eigenvalue found = 8.173e-03
Small eigenvalue found = 1.428e-02
Small eigenvalue found = 2.726e-02
The first mode is                       ....   60
The number of degrees of freedom        ....   84

    -----------------------------------------------------------------
                    Redundant Internal Coordinates


    -----------------------------------------------------------------
         Definition                    Initial Value    Approx d2E/dq
    -----------------------------------------------------------------
      1. B(C   1,O   0)                  1.2227         1.034749   
      2. B(O   2,C   1)                  1.3458         0.658362   
      3. B(C   3,C   1)                  1.5205         0.386852   
      4. B(O   4,C   3)                  1.4386         0.468142   
      5. B(C   5,C   3)                  1.5429         0.356247   
      6. B(O   6,C   5)                  1.4384         0.468507   
      7. B(C   7,C   5)                  1.5491         0.348210   
      8. B(O   8,C   7)                  1.4278         0.487077   
      9. B(C   9,C   7)                  1.5432         0.355929   
     10. B(O  10,C   9)                  1.4367         0.471451   
     11. B(C  11,C   9)                  1.5339         0.368263   
     12. B(O  12,C  11)                  1.4263         0.489684   
     13. B(P  13,O  12)                  1.5997         0.870721   
     14. B(O  14,P  13)                  1.4871         1.316590   
     15. B(O  15,P  13)                  1.5925         0.894048   
     16. B(O  16,P  13)                  1.5950         0.885810   
     17. B(H  17,O   2)                  0.9797         0.483601   
     18. B(H  18,C   3)                  1.0937         0.355203   
     19. B(H  19,O   4)                  0.9743         0.493433   
     20. B(H  20,C   5)                  1.0975         0.350366   
     21. B(H  21,O   6)                  0.9823         0.478990   
     22. B(H  22,C   7)                  1.0983         0.349225   
     23. B(H  23,O   8)                  0.9756         0.490921   
     24. B(H  24,C   9)                  1.0942         0.354615   
     25. B(H  25,O  10)                  0.9787         0.485378   
     26. B(H  26,C  11)                  1.0951         0.353473   
     27. B(H  27,C  11)                  1.0949         0.353708   
     28. B(H  28,O  15)                  0.9736         0.494675   
     29. B(H  29,O  16)                  0.9764         0.489502   
     30. A(O   2,C   1,C   3)          113.2043         0.400782   
     31. A(O   0,C   1,C   3)          125.5539         0.434380   
     32. A(O   0,C   1,O   2)          121.2382         0.475344   
     33. A(C   1,O   2,H  17)          105.3830         0.369325   
     34. A(C   5,C   3,H  18)          111.9934         0.321082   
     35. A(O   4,C   3,C   5)          110.0089         0.372290   
     36. A(C   1,C   3,H  18)          110.5332         0.325452   
     37. A(C   1,C   3,C   5)          110.0075         0.362572   
     38. A(O   4,C   3,H  18)          105.7569         0.333852   
     39. A(C   1,C   3,O   4)          108.4032         0.377624   
     40. A(C   3,O   4,H  19)          107.1101         0.349689   
     41. A(C   3,C   5,H  20)          108.1033         0.320363   
     42. A(C   3,C   5,O   6)          110.0594         0.372340   
     43. A(O   6,C   5,C   7)          108.9722         0.370881   
     44. A(C   3,C   5,C   7)          115.5916         0.356133   
     45. A(C   7,C   5,H  20)          108.2302         0.319171   
     46. A(O   6,C   5,H  20)          105.3771         0.333136   
     47. A(C   5,O   6,H  21)          106.2676         0.347988   
     48. A(O   8,C   7,C   9)          109.7631         0.374786   
     49. A(C   9,C   7,H  22)          107.5451         0.320146   
     50. A(C   5,C   7,H  22)          107.0754         0.319002   
     51. A(O   8,C   7,H  22)          107.0845         0.335112   
     52. A(C   5,C   7,C   9)          113.6946         0.356079   
     53. A(C   5,C   7,O   8)          111.3568         0.373371   
     54. A(C   7,O   8,H  23)          107.8398         0.351735   
     55. A(O  10,C   9,C  11)          109.1377         0.374881   
     56. A(C   7,C   9,C  11)          111.3349         0.359485   
     57. A(C   7,C   9,O  10)          109.9836         0.372685   
     58. A(C  11,C   9,H  24)          108.5461         0.322744   
     59. A(O  10,C   9,H  24)          106.9721         0.334151   
     60. A(C   7,C   9,H  24)          110.7477         0.320949   
     61. A(C   9,O  10,H  25)          105.6313         0.349134   
     62. A(O  12,C  11,H  27)          106.5839         0.336122   
     63. A(C   9,C  11,H  27)          110.3818         0.322608   
     64. A(O  12,C  11,H  26)          110.6131         0.336085   
     65. A(C   9,C  11,H  26)          111.8943         0.322573   
     66. A(H  26,C  11,H  27)          108.3143         0.289180   
     67. A(C   9,C  11,O  12)          108.9186         0.377346   
     68. A(C  11,O  12,P  13)          116.9728         0.466543   
     69. A(O  15,P  13,O  16)          100.9610         0.560936   
     70. A(O  14,P  13,O  16)          112.7659         0.604143   
     71. A(O  12,P  13,O  16)          104.9627         0.558120   
     72. A(O  14,P  13,O  15)          115.8866         0.605224   
     73. A(O  12,P  13,O  15)          103.7829         0.559104   
     74. A(O  12,P  13,O  14)          116.6997         0.602144   
     75. A(P  13,O  15,H  28)          111.2560         0.417111   
     76. A(P  13,O  16,H  29)          109.8305         0.415646   
     77. D(H  17,O   2,C   1,C   3)   -178.1893         0.032102   
     78. D(H  17,O   2,C   1,O   0)      1.1655         0.032102   
     79. D(O   4,C   3,C   1,O   0)     47.7092         0.011144   
     80. D(C   5,C   3,C   1,O   2)    106.7053         0.011144   
     81. D(H  18,C   3,C   1,O   0)    163.1912         0.011144   
     82. D(O   4,C   3,C   1,O   2)   -132.9688         0.011144   
     83. D(H  18,C   3,C   1,O   2)    -17.4869         0.011144   
     84. D(C   5,C   3,C   1,O   0)    -72.6167         0.011144   
     85. D(H  19,O   4,C   3,C   5)     56.0561         0.017273   
     86. D(H  19,O   4,C   3,H  18)    177.1783         0.017273   
     87. D(H  19,O   4,C   3,C   1)    -64.2690         0.017273   
     88. D(C   7,C   5,C   3,C   1)    -61.0434         0.010197   
     89. D(O   6,C   5,C   3,O   4)     55.6444         0.010197   
     90. D(O   6,C   5,C   3,H  18)    -61.6626         0.010197   
     91. D(O   6,C   5,C   3,C   1)    174.9951         0.010197   
     92. D(H  20,C   5,C   3,H  18)   -176.2681         0.010197   
     93. D(H  20,C   5,C   3,O   4)    -58.9611         0.010197   
     94. D(H  20,C   5,C   3,C   1)     60.3896         0.010197   
     95. D(C   7,C   5,C   3,H  18)     62.2989         0.010197   
     96. D(C   7,C   5,C   3,O   4)    179.6059         0.010197   
     97. D(H  21,O   6,C   5,H  20)   -173.4038         0.017300   
     98. D(H  21,O   6,C   5,C   7)    -57.4508         0.017300   
     99. D(H  21,O   6,C   5,C   3)     70.2687         0.017300   
    100. D(H  22,C   7,C   5,C   3)   -170.9984         0.009777   
    101. D(C   9,C   7,C   5,H  20)   -173.7305         0.009777   
    102. D(C   9,C   7,C   5,O   6)     72.1618         0.009777   
    103. D(C   9,C   7,C   5,C   3)    -52.3657         0.009777   
    104. D(O   8,C   7,C   5,H  20)    -49.1133         0.009777   
    105. D(O   8,C   7,C   5,O   6)   -163.2210         0.009777   
    106. D(H  22,C   7,C   5,O   6)    -46.4709         0.009777   
    107. D(O   8,C   7,C   5,C   3)     72.2515         0.009777   
    108. D(H  22,C   7,C   5,H  20)     67.6368         0.009777   
    109. D(H  23,O   8,C   7,H  22)    -56.4205         0.018728   
    110. D(H  23,O   8,C   7,C   9)   -172.8782         0.018728   
    111. D(H  23,O   8,C   7,C   5)     60.3241         0.018728   
    112. D(H  24,C   9,C   7,H  22)   -172.1665         0.010180   
    113. D(H  24,C   9,C   7,C   5)     69.4704         0.010180   
    114. D(C  11,C   9,C   7,H  22)    -51.2953         0.010180   
    115. D(C  11,C   9,C   7,O   8)     64.8721         0.010180   
    116. D(C  11,C   9,C   7,C   5)   -169.6583         0.010180   
    117. D(O  10,C   9,C   7,H  22)     69.8054         0.010180   
    118. D(H  24,C   9,C   7,O   8)    -55.9992         0.010180   
    119. D(O  10,C   9,C   7,O   8)   -174.0273         0.010180   
    120. D(O  10,C   9,C   7,C   5)    -48.5577         0.010180   
    121. D(H  25,O  10,C   9,H  24)     70.3986         0.017522   
    122. D(H  25,O  10,C   9,C  11)    -46.8540         0.017522   
    123. D(H  25,O  10,C   9,C   7)   -169.2635         0.017522   
    124. D(H  27,C  11,C   9,H  24)   -174.9855         0.010848   
    125. D(H  27,C  11,C   9,C   7)     62.8612         0.010848   
    126. D(H  26,C  11,C   9,H  24)     64.3115         0.010848   
    127. D(H  26,C  11,C   9,O  10)   -179.4359         0.010848   
    128. D(H  26,C  11,C   9,C   7)    -57.8418         0.010848   
    129. D(O  12,C  11,C   9,H  24)    -58.2925         0.010848   
    130. D(H  27,C  11,C   9,O  10)    -58.7329         0.010848   
    131. D(O  12,C  11,C   9,O  10)     57.9600         0.010848   
    132. D(O  12,C  11,C   9,C   7)    179.5541         0.010848   
    133. D(P  13,O  12,C  11,H  27)   -141.8171         0.018934   
    134. D(P  13,O  12,C  11,H  26)    -24.2808         0.018934   
    135. D(P  13,O  12,C  11,C   9)     99.0909         0.018934   
    136. D(O  16,P  13,O  12,C  11)     74.9980         0.013122   
    137. D(O  15,P  13,O  12,C  11)   -179.4443         0.013122   
    138. D(O  14,P  13,O  12,C  11)    -50.6473         0.013122   
    139. D(H  28,O  15,P  13,O  12)    -54.3038         0.013801   
    140. D(H  28,O  15,P  13,O  16)     54.2561         0.013801   
    141. D(H  28,O  15,P  13,O  14)    176.4040         0.013801   
    142. D(H  29,O  16,P  13,O  15)     93.2279         0.013559   
    143. D(H  29,O  16,P  13,O  14)    -31.0740         0.013559   
    144. D(H  29,O  16,P  13,O  12)   -159.1374         0.013559   
    -----------------------------------------------------------------

Number of atoms                         .... 30
Number of degrees of freedom            .... 144

         *************************************************************
         *                GEOMETRY OPTIMIZATION CYCLE   1            *
         *************************************************************
---------------------------------
CARTESIAN COORDINATES (ANGSTROEM)
---------------------------------
  O    -3.648500    1.432400    0.920900
  C    -2.570100    1.581700    0.364400
  O    -1.539500    2.180800    0.988900
  C    -2.231700    1.123300   -1.045300
  O    -3.291100    1.539800   -1.924900
  C    -2.089000   -0.412600   -1.081000
  O    -1.884800   -0.857800   -2.433400
  C    -0.972900   -1.002000   -0.182800
  O    -1.322800   -0.925000    1.199300
  C     0.410200   -0.355600   -0.407700
  O     0.705800   -0.304800   -1.812700
  C     1.515900   -1.139200    0.310800
  O     2.769000   -0.505400    0.060900
  P     3.333700    0.461400    1.203400
  O     2.402600    1.498900    1.721200
  O     4.707200    0.997700    0.601900
  O     3.864400   -0.517100    2.345700
  H    -1.870200    2.399600    1.884800
  H    -1.330500    1.626900   -1.406500
  H    -4.096300    1.066300   -1.648100
  H    -3.046200   -0.851300   -0.771600
  H    -0.982900   -0.562500   -2.687100
  H    -0.885300   -2.067500   -0.434600
  H    -2.142000   -1.438700    1.329300
  H     0.420300    0.675500   -0.041700
  H     1.649500   -0.052800   -1.874700
  H     1.329700   -1.214200    1.387300
  H     1.591500   -2.152600   -0.096700
  H     5.286900    0.262300    0.335500
  H     3.917000   -0.037500    3.194600

----------------------------
CARTESIAN COORDINATES (A.U.)
----------------------------
  NO LB    ZA    FRAG    MASS        X           Y           Z
   0 O   8.0000    0    15.999   -6.894666    2.706844    1.740249
   1 C   6.0000    0    12.011   -4.856785    2.988980    0.688616
   2 O   8.0000    0    15.999   -2.909233    4.121115    1.868750
   3 C   6.0000    0    12.011   -4.217302    2.122729   -1.975331
   4 O   8.0000    0    15.999   -6.219278    2.909800   -3.637534
   5 C   6.0000    0    12.011   -3.947638   -0.779701   -2.042794
   6 O   8.0000    0    15.999   -3.561756   -1.621007   -4.598460
   7 C   6.0000    0    12.011   -1.838515   -1.893506   -0.345442
   8 O   8.0000    0    15.999   -2.499730   -1.747997    2.266349
   9 C   6.0000    0    12.011    0.775166   -0.671987   -0.770441
  10 O   8.0000    0    15.999    1.333769   -0.575989   -3.425507
  11 C   6.0000    0    12.011    2.864636   -2.152776    0.587327
  12 O   8.0000    0    15.999    5.232652   -0.955068    0.115084
  13 P  15.0000    0    30.974    6.299780    0.871920    2.274096
  14 O   8.0000    0    15.999    4.540256    2.832511    3.252597
  15 O   8.0000    0    15.999    8.895319    1.885380    1.137426
  16 O   8.0000    0    15.999    7.302658   -0.977177    4.432731
  17 H   1.0000    0     1.008   -3.534166    4.534587    3.561756
  18 H   1.0000    0     1.008   -2.514281    3.074395   -2.657900
  19 H   1.0000    0     1.008   -7.740885    2.015015   -3.114458
  20 H   1.0000    0     1.008   -5.756484   -1.608724   -1.458113
  21 H   1.0000    0     1.008   -1.857412   -1.062971   -5.077883
  22 H   1.0000    0     1.008   -1.672975   -3.907009   -0.821275
  23 H   1.0000    0     1.008   -4.047793   -2.718749    2.512013
  24 H   1.0000    0     1.008    0.794252    1.276510   -0.078802
  25 H   1.0000    0     1.008    3.117103   -0.099778   -3.542670
  26 H   1.0000    0     1.008    2.512769   -2.294505    2.621617
  27 H   1.0000    0     1.008    3.007499   -4.067824   -0.182737
  28 H   1.0000    0     1.008    9.990793    0.495675    0.634003
  29 H   1.0000    0     1.008    7.402057   -0.070865    6.036919

      -----------------------------------------------------------      
     |                   =====================                   |     
     |                           x T B                           |     
     |                   =====================                   |     
     |                         S. Grimme                         |     
     |          Mulliken Center for Theoretical Chemistry        |     
     |                    University of Bonn                     |     
      -----------------------------------------------------------      

   * xtb version 6.5.1 (579679a) compiled by 'ehlert@majestix' on 2022-07-11

   xtb is free software: you can redistribute it and/or modify it under
   the terms of the GNU Lesser General Public License as published by
   the Free Software Foundation, either version 3 of the License, or
   (at your option) any later version.
   
   xtb is distributed in the hope that it will be useful,
   but WITHOUT ANY WARRANTY; without even the implied warranty of
   MERCHANTABILITY or FITNESS FOR A PARTICULAR PURPOSE.  See the
   GNU Lesser General Public License for more details.
   
   Cite this work as:
   * C. Bannwarth, E. Caldeweyher, S. Ehlert, A. Hansen, P. Pracht,
     J. Seibert, S. Spicher, S. Grimme, WIREs Comput. Mol. Sci., 2020, 11,
     e01493. DOI: 10.1002/wcms.1493
   
   for GFN2-xTB:
   * C. Bannwarth, S. Ehlert and S. Grimme., J. Chem. Theory Comput., 2019,
     15, 1652-1671. DOI: 10.1021/acs.jctc.8b01176
   for GFN1-xTB:
   * S. Grimme, C. Bannwarth, P. Shushkov, J. Chem. Theory Comput., 2017,
     13, 1989-2009. DOI: 10.1021/acs.jctc.7b00118
   for GFN0-xTB:
   * P. Pracht, E. Caldeweyher, S. Ehlert, S. Grimme, ChemRxiv, 2019, preprint.
     DOI: 10.26434/chemrxiv.8326202.v1
   for GFN-FF:
   * S. Spicher and S. Grimme, Angew. Chem. Int. Ed., 2020, 59, 15665-15673.
     DOI: 10.1002/anie.202004239
   
   for ALPB and GBSA implicit solvation:
   * S. Ehlert, M. Stahn, S. Spicher, S. Grimme, J. Chem. Theory Comput.,
     2021, 17, 4250-4261. DOI: 10.1021/acs.jctc.1c00471
   
   for DFT-D4:
   * E. Caldeweyher, C. Bannwarth and S. Grimme, J. Chem. Phys., 2017,
     147, 034112. DOI: 10.1063/1.4993215
   * E. Caldeweyher, S. Ehlert, A. Hansen, H. Neugebauer, S. Spicher,
     C. Bannwarth and S. Grimme, J. Chem. Phys., 2019, 150, 154122.
     DOI: 10.1063/1.5090222
   * E. Caldeweyher, J.-M. Mewes, S. Ehlert and S. Grimme, Phys. Chem. Chem. Phys.
     2020, 22, 8499-8512. DOI: 10.1039/D0CP00502A
   
   for sTDA-xTB:
   * S. Grimme and C. Bannwarth, J. Chem. Phys., 2016, 145, 054103.
     DOI: 10.1063/1.4959605
   
   in the mass-spec context:
   * V. Asgeirsson, C. Bauer and S. Grimme, Chem. Sci., 2017, 8, 4879.
     DOI: 10.1039/c7sc00601b
   * J. Koopman and S. Grimme, ACS Omega 2019, 4, 12, 15120-15133.
     DOI: 10.1021/acsomega.9b02011
   
   for metadynamics refer to:
   * S. Grimme, J. Chem. Theory Comput., 2019, 155, 2847-2862
     DOI: 10.1021/acs.jctc.9b00143
   
   for SPH calculations refer to:
   * S. Spicher and S. Grimme, J. Chem. Theory Comput., 2021, 17, 1701-1714
     DOI: 10.1021/acs.jctc.0c01306
   
   with help from (in alphabetical order)
   P. Atkinson, C. Bannwarth, F. Bohle, G. Brandenburg, E. Caldeweyher
   M. Checinski, S. Dohm, S. Ehlert, S. Ehrlich, I. Gerasimov, C. Hölzer
   A. Katbashev, J. Koopman, C. Lavigne, S. Lehtola, F. März, M. Müller,
   F. Musil, H. Neugebauer, J. Pisarek, C. Plett, P. Pracht, F. Pultar,
   J. Seibert, P. Shushkov, S. Spicher, M. Stahn, M. Steiner, T. Strunk,
   J. Stückrath, T. Rose, and J. Unsleber
   
 * started run on 2023/12/07 at 01:17:17.744     

           -------------------------------------------------
          |                Calculation Setup                |
           -------------------------------------------------

          program call               : otool_xtb /tmp/C00345_XTB.xyz --grad -c 0 -u 0 -P 1 --namespace /tmp/C00345 --input /tmp/C00345_XTB.input.tmp --acc 1.000000
          calculation namespace      : /tmp/C00345
          coordinate file            : /tmp/C00345_XTB.xyz
          omp threads                :                     1

   ID    Z sym.   atoms
    1    8 O      1, 3, 5, 7, 9, 11, 13, 15-17
    2    6 C      2, 4, 6, 8, 10, 12
    3   15 P      14
    4    1 H      18-30

           -------------------------------------------------
          |                 G F N 2 - x T B                 |
           -------------------------------------------------

        Reference                      10.1021/acs.jctc.8b01176
      * Hamiltonian:
        H0-scaling (s, p, d)           1.850000    2.230000    2.230000
        zeta-weighting                 0.500000
      * Dispersion:
        s8                             2.700000
        a1                             0.520000
        a2                             5.000000
        s9                             5.000000
      * Repulsion:
        kExp                           1.500000    1.000000
        rExp                           1.000000
      * Coulomb:
        alpha                          2.000000
        third order                    shell-resolved
        anisotropic                    true
        a3                             3.000000
        a5                             4.000000
        cn-shift                       1.200000
        cn-exp                         4.000000
        max-rad                        5.000000


          ...................................................
          :                      SETUP                      :
          :.................................................:
          :  # basis functions                  87          :
          :  # atomic orbitals                  86          :
          :  # shells                           48          :
          :  # electrons                       102          :
          :  max. iterations                   250          :
          :  Hamiltonian                  GFN2-xTB          :
          :  restarted?                      false          :
          :  GBSA solvation                  false          :
          :  PC potential                    false          :
          :  electronic temp.          300.0000000     K    :
          :  accuracy                    1.0000000          :
          :  -> integral cutoff          0.2500000E+02      :
          :  -> integral neglect         0.1000000E-07      :
          :  -> SCF convergence          0.1000000E-05 Eh   :
          :  -> wf. convergence          0.1000000E-03 e    :
          :  Broyden damping             0.4000000          :
          ...................................................

 iter      E             dE          RMSdq      gap      omega  full diag
   1    -63.0838427 -0.630838E+02  0.634E+00    5.13       0.0  T
   2    -63.1703173 -0.864745E-01  0.354E+00    4.12       1.0  T
   3    -63.1786750 -0.835774E-02  0.119E+00    4.42       1.0  T
   4    -63.1885724 -0.989737E-02  0.487E-01    4.05       1.0  T
   5    -63.1895174 -0.945022E-03  0.185E-01    4.19       1.0  T
   6    -63.1896670 -0.149664E-03  0.661E-02    4.15       1.0  T
   7    -63.1896757 -0.861210E-05  0.249E-02    4.16       1.0  T
   8    -63.1896783 -0.262977E-05  0.959E-03    4.15       1.9  T
   9    -63.1896785 -0.252953E-06  0.307E-03    4.15       6.0  T
  10    -63.1896786 -0.445981E-07  0.115E-03    4.15      15.9  T
  11    -63.1896786 -0.314045E-08  0.417E-04    4.15      43.7  T
  12    -63.1896786 -0.747384E-09  0.126E-04    4.15     144.8  T

   *** convergence criteria satisfied after 12 iterations ***

         #    Occupation            Energy/Eh            Energy/eV
      -------------------------------------------------------------
         1        2.0000           -0.7602724             -20.6881
       ...           ...                  ...                  ...
        45        2.0000           -0.4519159             -12.2973
        46        2.0000           -0.4487402             -12.2108
        47        2.0000           -0.4480389             -12.1918
        48        2.0000           -0.4446074             -12.0984
        49        2.0000           -0.4349938             -11.8368
        50        2.0000           -0.4262033             -11.5976
        51        2.0000           -0.4063129             -11.0563 (HOMO)
        52                         -0.2536574              -6.9024 (LUMO)
        53                         -0.0986683              -2.6849
        54                         -0.0647275              -1.7613
        55                         -0.0507305              -1.3804
        56                         -0.0243591              -0.6628
       ...                                ...                  ...
        86                          1.1884915              32.3405
      -------------------------------------------------------------
                  HL-Gap            0.1526554 Eh            4.1540 eV
             Fermi-level           -0.3299852 Eh           -8.9794 eV

 SCC (total)                   0 d,  0 h,  0 min,  0.040 sec
 SCC setup                      ...        0 min,  0.000 sec (  0.595%)
 Dispersion                     ...        0 min,  0.000 sec (  0.605%)
 classical contributions        ...        0 min,  0.000 sec (  0.133%)
 integral evaluation            ...        0 min,  0.006 sec ( 14.526%)
 iterations                     ...        0 min,  0.016 sec ( 40.848%)
 molecular gradient             ...        0 min,  0.017 sec ( 42.790%)
 printout                       ...        0 min,  0.000 sec (  0.455%)

         :::::::::::::::::::::::::::::::::::::::::::::::::::::
         ::                     SUMMARY                     ::
         :::::::::::::::::::::::::::::::::::::::::::::::::::::
         :: total energy             -62.800320616736 Eh    ::
         :: gradient norm              0.096208437485 Eh/a0 ::
         :: HOMO-LUMO gap              4.153966221130 eV    ::
         ::.................................................::
         :: SCC energy               -63.189678582891 Eh    ::
         :: -> isotropic ES            0.249313222671 Eh    ::
         :: -> anisotropic ES         -0.006500799260 Eh    ::
         :: -> anisotropic XC         -0.007287617752 Eh    ::
         :: -> dispersion             -0.027533407512 Eh    ::
         :: repulsion energy           0.389043900015 Eh    ::
         :: add. restraining           0.000000000000 Eh    ::
         :: total charge              -0.000000000000 e     ::
         :::::::::::::::::::::::::::::::::::::::::::::::::::::


Property printout bound to 'properties.out'

           -------------------------------------------------
          | TOTAL ENERGY              -62.800320616736 Eh   |
          | GRADIENT NORM               0.096208437485 Eh/α |
          | HOMO-LUMO GAP               4.153966221130 eV   |
           -------------------------------------------------

------------------------------------------------------------------------
 * finished run on 2023/12/07 at 01:17:17.797     
------------------------------------------------------------------------
 total:
 * wall-time:     0 d,  0 h,  0 min,  0.052 sec
 *  cpu-time:     0 d,  0 h,  0 min,  0.052 sec
 * ratio c/w:     0.993 speedup
 SCF:
 * wall-time:     0 d,  0 h,  0 min,  0.040 sec
 *  cpu-time:     0 d,  0 h,  0 min,  0.040 sec
 * ratio c/w:     1.000 speedup


-------------------------   --------------------
FINAL SINGLE POINT ENERGY       -62.800320616740
-------------------------   --------------------

------------------------------------------------------------------------------
                         ORCA GEOMETRY RELAXATION STEP
------------------------------------------------------------------------------

Reading the OPT-File                    .... done
Getting information on internals        .... done
Copying old internal coords+grads       .... done
Making the new internal coordinates     .... (new redundants).... done
Validating the new internal coordinates .... (new redundants).... done
Calculating the B-matrix                .... done
Calculating the G,G- and P matrices     .... done
Transforming gradient to internals      .... done
Projecting the internal gradient        .... done
Number of atoms                         ....  30
Number of internal coordinates          .... 144
Current Energy                          ....   -62.800320617 Eh
Current gradient norm                   ....     0.096208437 Eh/bohr
Maximum allowed component of the step   ....  0.300
Current trust radius                    ....  0.300
Evaluating the initial hessian          ....  (Almloef) done
Projecting the Hessian                  .... done
Forming the augmented Hessian           .... done
Diagonalizing the augmented Hessian     .... done
Last element of RFO vector              ....  0.965908363
Lowest eigenvalues of augmented Hessian:
 -0.013143922  0.009910418  0.010180424  0.010419415  0.010866896
Length of the computed step             ....  0.268021502
The final length of the internal step   ....  0.268021502
Converting the step to cartesian space:
 Initial RMS(Int)=    0.0223351252
Transforming coordinates:
 Iter   0:  RMS(Cart)=    0.1450391705 RMS(Int)=    0.5205477569
 Iter   1:  RMS(Cart)=    0.0048309534 RMS(Int)=    0.0020948135
 Iter   2:  RMS(Cart)=    0.0004202259 RMS(Int)=    0.0000993925
 Iter   3:  RMS(Cart)=    0.0000353193 RMS(Int)=    0.0000207990
 Iter   4:  RMS(Cart)=    0.0000038400 RMS(Int)=    0.0000014152
 Iter   5:  RMS(Cart)=    0.0000003978 RMS(Int)=    0.0000002841
 Iter   6:  RMS(Cart)=    0.0000000478 RMS(Int)=    0.0000000221
done
Storing new coordinates                 .... done

                                .--------------------.
          ----------------------|Geometry convergence|-------------------------
          Item                value                   Tolerance       Converged
          ---------------------------------------------------------------------
          RMS gradient        0.0066008336            0.0001000000      NO
          MAX gradient        0.0353711811            0.0003000000      NO
          RMS step            0.0223351252            0.0020000000      NO
          MAX step            0.0686646415            0.0040000000      NO
          ........................................................
          Max(Bonds)      0.0253      Max(Angles)    2.44
          Max(Dihed)        3.93      Max(Improp)    0.00
          ---------------------------------------------------------------------

The optimization has not yet converged - more geometry cycles are needed


    ---------------------------------------------------------------------------
                         Redundant Internal Coordinates
                            (Angstroem and degrees)

        Definition                    Value    dE/dq     Step     New-Value
    ----------------------------------------------------------------------------
     1. B(C   1,O   0)                1.2227  0.029975 -0.0151    1.2075   
     2. B(O   2,C   1)                1.3458  0.012329 -0.0097    1.3360   
     3. B(C   3,C   1)                1.5205  0.003616 -0.0048    1.5157   
     4. B(O   4,C   3)                1.4386  0.019739 -0.0217    1.4169   
     5. B(C   5,C   3)                1.5429  0.002494 -0.0036    1.5394   
     6. B(O   6,C   5)                1.4384  0.023057 -0.0253    1.4130   
     7. B(C   7,C   5)                1.5491  0.004351 -0.0064    1.5428   
     8. B(O   8,C   7)                1.4278  0.010525 -0.0111    1.4166   
     9. B(C   9,C   7)                1.5432  0.008467 -0.0121    1.5310   
    10. B(O  10,C   9)                1.4367  0.012784 -0.0140    1.4227   
    11. B(C  11,C   9)                1.5339  0.005401 -0.0075    1.5264   
    12. B(O  12,C  11)                1.4263  0.003586 -0.0038    1.4226   
    13. B(P  13,O  12)                1.5997  0.004545 -0.0027    1.5969   
    14. B(O  14,P  13)                1.4871  0.035371 -0.0141    1.4730   
    15. B(O  15,P  13)                1.5925  0.003801 -0.0022    1.5902   
    16. B(O  16,P  13)                1.5950 -0.008738  0.0051    1.6001   
    17. B(H  17,O   2)                0.9797  0.006192 -0.0066    0.9731   
    18. B(H  18,C   3)                1.0937  0.002556 -0.0037    1.0901   
    19. B(H  19,O   4)                0.9743  0.007718 -0.0081    0.9662   
    20. B(H  20,C   5)                1.0975 -0.000149  0.0002    1.0977   
    21. B(H  21,O   6)                0.9823  0.011649 -0.0125    0.9698   
    22. B(H  22,C   7)                1.0983 -0.002349  0.0034    1.1018   
    23. B(H  23,O   8)                0.9756  0.009977 -0.0105    0.9652   
    24. B(H  24,C   9)                1.0942 -0.002636  0.0038    1.0980   
    25. B(H  25,O  10)                0.9787  0.010880 -0.0115    0.9672   
    26. B(H  26,C  11)                1.0951  0.002774 -0.0040    1.0911   
    27. B(H  27,C  11)                1.0949 -0.000071  0.0001    1.0950   
    28. B(H  28,O  15)                0.9736  0.012992 -0.0135    0.9600   
    29. B(H  29,O  16)                0.9764  0.017011 -0.0179    0.9585   
    30. A(O   2,C   1,C   3)          113.20  0.001599   -0.18    113.02   
    31. A(O   0,C   1,C   3)          125.55  0.006696   -0.82    124.73   
    32. A(O   0,C   1,O   2)          121.24 -0.008296    1.01    122.24   
    33. A(C   1,O   2,H  17)          105.38 -0.013855    2.08    107.46   
    34. A(C   5,C   3,H  18)          111.99 -0.000673   -0.28    111.72   
    35. A(O   4,C   3,C   5)          110.01 -0.001597    0.54    110.55   
    36. A(C   1,C   3,H  18)          110.53 -0.000530   -0.26    110.27   
    37. A(C   1,C   3,C   5)          110.01  0.005021   -0.96    109.05   
    38. A(O   4,C   3,H  18)          105.76  0.001260   -0.01    105.75   
    39. A(C   1,C   3,O   4)          108.40 -0.003837    1.07    109.47   
    40. A(C   3,O   4,H  19)          107.11 -0.003188    0.50    107.61   
    41. A(C   3,C   5,H  20)          108.10 -0.002855    0.06    108.16   
    42. A(C   3,C   5,O   6)          110.06 -0.002828    0.83    110.89   
    43. A(O   6,C   5,C   7)          108.97 -0.006394    1.56    110.53   
    44. A(C   3,C   5,C   7)          115.59  0.009902   -1.79    113.81   
    45. A(C   7,C   5,H  20)          108.23 -0.001440   -0.17    108.06   
    46. A(O   6,C   5,H  20)          105.38  0.003194   -0.44    104.94   
    47. A(C   5,O   6,H  21)          106.27 -0.002201    0.35    106.62   
    48. A(O   8,C   7,C   9)          109.76  0.009094   -2.44    107.32   
    49. A(C   9,C   7,H  22)          107.55 -0.001973    0.90    108.44   
    50. A(C   5,C   7,H  22)          107.08  0.003022    0.08    107.15   
    51. A(O   8,C   7,H  22)          107.08 -0.004368    1.71    108.80   
    52. A(C   5,C   7,C   9)          113.69 -0.003853    0.09    113.79   
    53. A(C   5,C   7,O   8)          111.36 -0.002255   -0.09    111.26   
    54. A(C   7,O   8,H  23)          107.84 -0.001652    0.26    108.10   
    55. A(O  10,C   9,C  11)          109.14 -0.001499    0.36    109.50   
    56. A(C   7,C   9,C  11)          111.33  0.001435   -0.72    110.62   
    57. A(C   7,C   9,O  10)          109.98  0.001392   -0.32    109.67   
    58. A(C  11,C   9,H  24)          108.55  0.000580   -0.24    108.31   
    59. A(O  10,C   9,H  24)          106.97 -0.002688    1.42    108.39   
    60. A(C   7,C   9,H  24)          110.75  0.000576   -0.42    110.33   
    61. A(C   9,O  10,H  25)          105.63 -0.001808    0.29    105.92   
    62. A(O  12,C  11,H  27)          106.58  0.000874   -0.03    106.55   
    63. A(C   9,C  11,H  27)          110.38 -0.000388    0.12    110.51   
    64. A(O  12,C  11,H  26)          110.61 -0.001662    0.22    110.83   
    65. A(C   9,C  11,H  26)          111.89  0.005043   -1.11    110.78   
    66. A(H  26,C  11,H  27)          108.31 -0.002646    0.76    109.07   
    67. A(C   9,C  11,O  12)          108.92 -0.001430    0.10    109.02   
    68. A(C  11,O  12,P  13)          116.97  0.002316   -0.28    116.70   
    69. A(O  15,P  13,O  16)          100.96 -0.016042    2.29    103.25   
    70. A(O  14,P  13,O  16)          112.77 -0.001369    0.57    113.33   
    71. A(O  12,P  13,O  16)          104.96  0.008631   -1.11    103.85   
    72. A(O  14,P  13,O  15)          115.89  0.001944   -0.08    115.81   
    73. A(O  12,P  13,O  15)          103.78  0.009571   -1.44    102.35   
    74. A(O  12,P  13,O  14)          116.70 -0.003246   -0.11    116.59   
    75. A(P  13,O  15,H  28)          111.26 -0.000969    0.13    111.39   
    76. A(P  13,O  16,H  29)          109.83  0.002052   -0.27    109.56   
    77. D(H  17,O   2,C   1,C   3)   -178.19 -0.000459    0.49   -177.70   
    78. D(H  17,O   2,C   1,O   0)      1.17 -0.000494    0.72      1.88   
    79. D(O   4,C   3,C   1,O   0)     47.71 -0.000309    0.62     48.33   
    80. D(C   5,C   3,C   1,O   2)    106.71  0.000848    0.13    106.83   
    81. D(H  18,C   3,C   1,O   0)    163.19 -0.001288    1.08    164.27   
    82. D(O   4,C   3,C   1,O   2)   -132.97 -0.000463    0.87   -132.10   
    83. D(H  18,C   3,C   1,O   2)    -17.49 -0.001441    1.33    -16.16   
    84. D(C   5,C   3,C   1,O   0)    -72.62  0.001002   -0.12    -72.74   
    85. D(H  19,O   4,C   3,C   5)     56.06  0.000747    0.89     56.95   
    86. D(H  19,O   4,C   3,H  18)    177.18 -0.000186    0.85    178.03   
    87. D(H  19,O   4,C   3,C   1)    -64.27 -0.002061    1.08    -63.19   
    88. D(C   7,C   5,C   3,C   1)    -61.04 -0.004388    3.38    -57.67   
    89. D(O   6,C   5,C   3,O   4)     55.64  0.001592    0.90     56.54   
    90. D(O   6,C   5,C   3,H  18)    -61.66  0.001468    0.73    -60.93   
    91. D(O   6,C   5,C   3,C   1)    175.00 -0.001008    1.95    176.95   
    92. D(H  20,C   5,C   3,H  18)   -176.27  0.000738    0.78   -175.49   
    93. D(H  20,C   5,C   3,O   4)    -58.96  0.000862    0.94    -58.02   
    94. D(H  20,C   5,C   3,C   1)     60.39 -0.001738    2.00     62.39   
    95. D(C   7,C   5,C   3,H  18)     62.30 -0.001912    2.16     64.46   
    96. D(C   7,C   5,C   3,O   4)    179.61 -0.001788    2.32    181.93   
    97. D(H  21,O   6,C   5,H  20)   -173.40  0.000032   -0.05   -173.46   
    98. D(H  21,O   6,C   5,C   7)    -57.45 -0.003012    0.27    -57.18   
    99. D(H  21,O   6,C   5,C   3)     70.27  0.003017   -0.29     69.98   
   100. D(H  22,C   7,C   5,C   3)   -171.00 -0.000264    1.45   -169.55   
   101. D(C   9,C   7,C   5,H  20)   -173.73 -0.004871    3.93   -169.80   
   102. D(C   9,C   7,C   5,O   6)     72.16 -0.004583    3.73     75.89   
   103. D(C   9,C   7,C   5,C   3)    -52.37 -0.002968    2.67    -49.69   
   104. D(O   8,C   7,C   5,H  20)    -49.11  0.002513    0.66    -48.46   
   105. D(O   8,C   7,C   5,O   6)   -163.22  0.002801    0.45   -162.77   
   106. D(H  22,C   7,C   5,O   6)    -46.47 -0.001880    2.51    -43.96   
   107. D(O   8,C   7,C   5,C   3)     72.25  0.004417   -0.61     71.65   
   108. D(H  22,C   7,C   5,H  20)     67.64 -0.002168    2.71     70.35   
   109. D(H  23,O   8,C   7,H  22)    -56.42  0.000623   -1.13    -57.55   
   110. D(H  23,O   8,C   7,C   9)   -172.88  0.000632   -1.86   -174.74   
   111. D(H  23,O   8,C   7,C   5)     60.32  0.000447   -0.07     60.26   
   112. D(H  24,C   9,C   7,H  22)   -172.17 -0.000839    0.58   -171.59   
   113. D(H  24,C   9,C   7,C   5)     69.47 -0.000981   -0.18     69.29   
   114. D(C  11,C   9,C   7,H  22)    -51.30  0.001257   -0.49    -51.79   
   115. D(C  11,C   9,C   7,O   8)     64.87 -0.000215    0.75     65.62   
   116. D(C  11,C   9,C   7,C   5)   -169.66  0.001116   -1.24   -170.90   
   117. D(O  10,C   9,C   7,H  22)     69.81  0.001255   -0.72     69.09   
   118. D(H  24,C   9,C   7,O   8)    -56.00 -0.002311    1.82    -54.18   
   119. D(O  10,C   9,C   7,O   8)   -174.03 -0.000217    0.52   -173.51   
   120. D(O  10,C   9,C   7,C   5)    -48.56  0.001114   -1.47    -50.03   
   121. D(H  25,O  10,C   9,H  24)     70.40 -0.000516    0.24     70.64   
   122. D(H  25,O  10,C   9,C  11)    -46.85  0.001054   -0.45    -47.30   
   123. D(H  25,O  10,C   9,C   7)   -169.26 -0.000647    0.41   -168.85   
   124. D(H  27,C  11,C   9,H  24)   -174.99  0.002022   -1.35   -176.34   
   125. D(H  27,C  11,C   9,C   7)     62.86 -0.000008   -0.21     62.65   
   126. D(H  26,C  11,C   9,H  24)     64.31  0.002266   -1.66     62.65   
   127. D(H  26,C  11,C   9,O  10)   -179.44 -0.001432    0.10   -179.34   
   128. D(H  26,C  11,C   9,C   7)    -57.84  0.000235   -0.52    -58.36   
   129. D(O  12,C  11,C   9,H  24)    -58.29  0.002017   -1.26    -59.56   
   130. D(H  27,C  11,C   9,O  10)    -58.73 -0.001676    0.40    -58.33   
   131. D(O  12,C  11,C   9,O  10)     57.96 -0.001681    0.49     58.45   
   132. D(O  12,C  11,C   9,C   7)    179.55 -0.000014   -0.12    179.43   
   133. D(P  13,O  12,C  11,H  27)   -141.82  0.002136   -2.42   -144.24   
   134. D(P  13,O  12,C  11,H  26)    -24.28 -0.001400   -1.42    -25.70   
   135. D(P  13,O  12,C  11,C   9)     99.09  0.002867   -2.60     96.49   
   136. D(O  16,P  13,O  12,C  11)     75.00  0.004437    0.05     75.05   
   137. D(O  15,P  13,O  12,C  11)   -179.44 -0.006838    1.68   -177.77   
   138. D(O  14,P  13,O  12,C  11)    -50.65  0.001479    0.28    -50.37   
   139. D(H  28,O  15,P  13,O  12)    -54.30 -0.000917    0.53    -53.77   
   140. D(H  28,O  15,P  13,O  16)     54.26  0.005858   -0.33     53.93   
   141. D(H  28,O  15,P  13,O  14)    176.40 -0.005939    1.92    178.32   
   142. D(H  29,O  16,P  13,O  15)     93.23 -0.006516    3.50     96.73   
   143. D(H  29,O  16,P  13,O  14)    -31.07  0.002127    1.84    -29.23   
   144. D(H  29,O  16,P  13,O  12)   -159.14  0.000769    2.42   -156.71   
    ----------------------------------------------------------------------------

         *************************************************************
         *                GEOMETRY OPTIMIZATION CYCLE   2            *
         *************************************************************
---------------------------------
CARTESIAN COORDINATES (ANGSTROEM)
---------------------------------
  O    -3.425279    1.393869    1.000339
  C    -2.393449    1.530525    0.388135
  O    -1.306724    2.081124    0.936654
  C    -2.178964    1.101101   -1.049560
  O    -3.253196    1.567415   -1.847119
  C    -2.090163   -0.434612   -1.107122
  O    -1.959620   -0.882520   -2.440910
  C    -0.971489   -1.026916   -0.225147
  O    -1.293630   -0.923304    1.150491
  C     0.391301   -0.358598   -0.425668
  O     0.696459   -0.300429   -1.814035
  C     1.483643   -1.136047    0.303904
  O     2.734341   -0.494734    0.084514
  P     3.233007    0.512324    1.219135
  O     2.269736    1.534489    1.663084
  O     4.594736    1.063473    0.610207
  O     3.722736   -0.451296    2.398962
  H    -1.521343    2.290970    1.862340
  H    -1.283356    1.572236   -1.454701
  H    -4.059741    1.140403   -1.529836
  H    -3.048097   -0.845566   -0.763065
  H    -1.073220   -0.621715   -2.735552
  H    -0.879588   -2.092630   -0.489200
  H    -2.110479   -1.413669    1.304919
  H     0.375363    0.665961   -0.031251
  H     1.626318   -0.040408   -1.870570
  H     1.264178   -1.203613    1.370517
  H     1.574966   -2.146747   -0.107338
  H     5.184621    0.346442    0.366161
  H     3.696833    0.022472    3.231808

----------------------------
CARTESIAN COORDINATES (A.U.)
----------------------------
  NO LB    ZA    FRAG    MASS        X           Y           Z
   0 O   8.0000    0    15.999   -6.472840    2.634030    1.890367
   1 C   6.0000    0    12.011   -4.522962    2.892272    0.733470
   2 O   8.0000    0    15.999   -2.469351    3.932755    1.770020
   3 C   6.0000    0    12.011   -4.117645    2.080779   -1.983381
   4 O   8.0000    0    15.999   -6.147649    2.961986   -3.490549
   5 C   6.0000    0    12.011   -3.949836   -0.821298   -2.092156
   6 O   8.0000    0    15.999   -3.703145   -1.667722   -4.612651
   7 C   6.0000    0    12.011   -1.835849   -1.940591   -0.425466
   8 O   8.0000    0    15.999   -2.444606   -1.744792    2.174113
   9 C   6.0000    0    12.011    0.739452   -0.677653   -0.804396
  10 O   8.0000    0    15.999    1.316117   -0.567728   -3.428029
  11 C   6.0000    0    12.011    2.803679   -2.146817    0.574296
  12 O   8.0000    0    15.999    5.167157   -0.934911    0.159708
  13 P  15.0000    0    30.974    6.109497    0.968152    2.303832
  14 O   8.0000    0    15.999    4.289179    2.899763    3.142774
  15 O   8.0000    0    15.999    8.682792    2.009674    1.153125
  16 O   8.0000    0    15.999    7.034952   -0.852826    4.533380
  17 H   1.0000    0     1.008   -2.874922    4.329305    3.519313
  18 H   1.0000    0     1.008   -2.425192    2.971096   -2.748986
  19 H   1.0000    0     1.008   -7.671799    2.155050   -2.890971
  20 H   1.0000    0     1.008   -5.760068   -1.597889   -1.441984
  21 H   1.0000    0     1.008   -2.028093   -1.174871   -5.169443
  22 H   1.0000    0     1.008   -1.662180   -3.954497   -0.924454
  23 H   1.0000    0     1.008   -3.988227   -2.671448    2.465940
  24 H   1.0000    0     1.008    0.709334    1.258484   -0.059056
  25 H   1.0000    0     1.008    3.073295   -0.076360   -3.534864
  26 H   1.0000    0     1.008    2.388949   -2.274498    2.589902
  27 H   1.0000    0     1.008    2.976255   -4.056764   -0.202840
  28 H   1.0000    0     1.008    9.797514    0.654681    0.691943
  29 H   1.0000    0     1.008    6.986003    0.042467    6.107233

      -----------------------------------------------------------      
     |                   =====================                   |     
     |                           x T B                           |     
     |                   =====================                   |     
     |                         S. Grimme                         |     
     |          Mulliken Center for Theoretical Chemistry        |     
     |                    University of Bonn                     |     
      -----------------------------------------------------------      

   * xtb version 6.5.1 (579679a) compiled by 'ehlert@majestix' on 2022-07-11

   xtb is free software: you can redistribute it and/or modify it under
   the terms of the GNU Lesser General Public License as published by
   the Free Software Foundation, either version 3 of the License, or
   (at your option) any later version.
   
   xtb is distributed in the hope that it will be useful,
   but WITHOUT ANY WARRANTY; without even the implied warranty of
   MERCHANTABILITY or FITNESS FOR A PARTICULAR PURPOSE.  See the
   GNU Lesser General Public License for more details.
   
   Cite this work as:
   * C. Bannwarth, E. Caldeweyher, S. Ehlert, A. Hansen, P. Pracht,
     J. Seibert, S. Spicher, S. Grimme, WIREs Comput. Mol. Sci., 2020, 11,
     e01493. DOI: 10.1002/wcms.1493
   
   for GFN2-xTB:
   * C. Bannwarth, S. Ehlert and S. Grimme., J. Chem. Theory Comput., 2019,
     15, 1652-1671. DOI: 10.1021/acs.jctc.8b01176
   for GFN1-xTB:
   * S. Grimme, C. Bannwarth, P. Shushkov, J. Chem. Theory Comput., 2017,
     13, 1989-2009. DOI: 10.1021/acs.jctc.7b00118
   for GFN0-xTB:
   * P. Pracht, E. Caldeweyher, S. Ehlert, S. Grimme, ChemRxiv, 2019, preprint.
     DOI: 10.26434/chemrxiv.8326202.v1
   for GFN-FF:
   * S. Spicher and S. Grimme, Angew. Chem. Int. Ed., 2020, 59, 15665-15673.
     DOI: 10.1002/anie.202004239
   
   for ALPB and GBSA implicit solvation:
   * S. Ehlert, M. Stahn, S. Spicher, S. Grimme, J. Chem. Theory Comput.,
     2021, 17, 4250-4261. DOI: 10.1021/acs.jctc.1c00471
   
   for DFT-D4:
   * E. Caldeweyher, C. Bannwarth and S. Grimme, J. Chem. Phys., 2017,
     147, 034112. DOI: 10.1063/1.4993215
   * E. Caldeweyher, S. Ehlert, A. Hansen, H. Neugebauer, S. Spicher,
     C. Bannwarth and S. Grimme, J. Chem. Phys., 2019, 150, 154122.
     DOI: 10.1063/1.5090222
   * E. Caldeweyher, J.-M. Mewes, S. Ehlert and S. Grimme, Phys. Chem. Chem. Phys.
     2020, 22, 8499-8512. DOI: 10.1039/D0CP00502A
   
   for sTDA-xTB:
   * S. Grimme and C. Bannwarth, J. Chem. Phys., 2016, 145, 054103.
     DOI: 10.1063/1.4959605
   
   in the mass-spec context:
   * V. Asgeirsson, C. Bauer and S. Grimme, Chem. Sci., 2017, 8, 4879.
     DOI: 10.1039/c7sc00601b
   * J. Koopman and S. Grimme, ACS Omega 2019, 4, 12, 15120-15133.
     DOI: 10.1021/acsomega.9b02011
   
   for metadynamics refer to:
   * S. Grimme, J. Chem. Theory Comput., 2019, 155, 2847-2862
     DOI: 10.1021/acs.jctc.9b00143
   
   for SPH calculations refer to:
   * S. Spicher and S. Grimme, J. Chem. Theory Comput., 2021, 17, 1701-1714
     DOI: 10.1021/acs.jctc.0c01306
   
   with help from (in alphabetical order)
   P. Atkinson, C. Bannwarth, F. Bohle, G. Brandenburg, E. Caldeweyher
   M. Checinski, S. Dohm, S. Ehlert, S. Ehrlich, I. Gerasimov, C. Hölzer
   A. Katbashev, J. Koopman, C. Lavigne, S. Lehtola, F. März, M. Müller,
   F. Musil, H. Neugebauer, J. Pisarek, C. Plett, P. Pracht, F. Pultar,
   J. Seibert, P. Shushkov, S. Spicher, M. Stahn, M. Steiner, T. Strunk,
   J. Stückrath, T. Rose, and J. Unsleber
   
 * started run on 2023/12/07 at 01:17:17.899     

           -------------------------------------------------
          |                Calculation Setup                |
           -------------------------------------------------

          program call               : otool_xtb /tmp/C00345_XTB.xyz --grad -c 0 -u 0 -P 1 --namespace /tmp/C00345 --input /tmp/C00345_XTB.input.tmp --acc 1.000000
          calculation namespace      : /tmp/C00345
          coordinate file            : /tmp/C00345_XTB.xyz
          omp threads                :                     1

   ID    Z sym.   atoms
    1    8 O      1, 3, 5, 7, 9, 11, 13, 15-17
    2    6 C      2, 4, 6, 8, 10, 12
    3   15 P      14
    4    1 H      18-30

           -------------------------------------------------
          |                 G F N 2 - x T B                 |
           -------------------------------------------------

        Reference                      10.1021/acs.jctc.8b01176
      * Hamiltonian:
        H0-scaling (s, p, d)           1.850000    2.230000    2.230000
        zeta-weighting                 0.500000
      * Dispersion:
        s8                             2.700000
        a1                             0.520000
        a2                             5.000000
        s9                             5.000000
      * Repulsion:
        kExp                           1.500000    1.000000
        rExp                           1.000000
      * Coulomb:
        alpha                          2.000000
        third order                    shell-resolved
        anisotropic                    true
        a3                             3.000000
        a5                             4.000000
        cn-shift                       1.200000
        cn-exp                         4.000000
        max-rad                        5.000000

q/qsh data taken from xtbrestart
CAMM data taken from xtbrestart

          ...................................................
          :                      SETUP                      :
          :.................................................:
          :  # basis functions                  87          :
          :  # atomic orbitals                  86          :
          :  # shells                           48          :
          :  # electrons                       102          :
          :  max. iterations                   250          :
          :  Hamiltonian                  GFN2-xTB          :
          :  restarted?                       true          :
          :  GBSA solvation                  false          :
          :  PC potential                    false          :
          :  electronic temp.          300.0000000     K    :
          :  accuracy                    1.0000000          :
          :  -> integral cutoff          0.2500000E+02      :
          :  -> integral neglect         0.1000000E-07      :
          :  -> SCF convergence          0.1000000E-05 Eh   :
          :  -> wf. convergence          0.1000000E-03 e    :
          :  Broyden damping             0.4000000          :
          ...................................................

 iter      E             dE          RMSdq      gap      omega  full diag
   1    -63.2254535 -0.632255E+02  0.339E-01    4.30       0.0  T
   2    -63.2255212 -0.676906E-04  0.196E-01    4.29       1.0  T
   3    -63.2255160  0.522120E-05  0.435E-02    4.31       1.0  T
   4    -63.2255343 -0.182592E-04  0.125E-02    4.29       1.5  T
   5    -63.2255349 -0.680784E-06  0.534E-03    4.30       3.4  T
   6    -63.2255350 -0.943428E-07  0.205E-03    4.30       8.9  T
   7    -63.2255350 -0.117318E-07  0.790E-04    4.30      23.1  T
   8    -63.2255351 -0.258401E-08  0.247E-04    4.30      74.1  T

   *** convergence criteria satisfied after 8 iterations ***

         #    Occupation            Energy/Eh            Energy/eV
      -------------------------------------------------------------
         1        2.0000           -0.7598837             -20.6775
       ...           ...                  ...                  ...
        45        2.0000           -0.4532333             -12.3331
        46        2.0000           -0.4508352             -12.2679
        47        2.0000           -0.4471256             -12.1669
        48        2.0000           -0.4464861             -12.1495
        49        2.0000           -0.4324233             -11.7668
        50        2.0000           -0.4240849             -11.5399
        51        2.0000           -0.4027501             -10.9594 (HOMO)
        52                         -0.2448847              -6.6637 (LUMO)
        53                         -0.0843889              -2.2963
        54                         -0.0539714              -1.4686
        55                         -0.0309630              -0.8425
        56                         -0.0299167              -0.8141
       ...                                ...                  ...
        86                          1.2087408              32.8915
      -------------------------------------------------------------
                  HL-Gap            0.1578653 Eh            4.2957 eV
             Fermi-level           -0.3238174 Eh           -8.8115 eV

 SCC (total)                   0 d,  0 h,  0 min,  0.035 sec
 SCC setup                      ...        0 min,  0.000 sec (  0.606%)
 Dispersion                     ...        0 min,  0.000 sec (  0.802%)
 classical contributions        ...        0 min,  0.000 sec (  0.153%)
 integral evaluation            ...        0 min,  0.006 sec ( 16.727%)
 iterations                     ...        0 min,  0.011 sec ( 31.590%)
 molecular gradient             ...        0 min,  0.017 sec ( 49.619%)
 printout                       ...        0 min,  0.000 sec (  0.453%)

         :::::::::::::::::::::::::::::::::::::::::::::::::::::
         ::                     SUMMARY                     ::
         :::::::::::::::::::::::::::::::::::::::::::::::::::::
         :: total energy             -62.809457410905 Eh    ::
         :: gradient norm              0.050143887094 Eh/a0 ::
         :: HOMO-LUMO gap              4.295734734389 eV    ::
         ::.................................................::
         :: SCC energy               -63.225535050362 Eh    ::
         :: -> isotropic ES            0.246231387905 Eh    ::
         :: -> anisotropic ES         -0.007351253070 Eh    ::
         :: -> anisotropic XC         -0.008658827750 Eh    ::
         :: -> dispersion             -0.028266961744 Eh    ::
         :: repulsion energy           0.415741165601 Eh    ::
         :: add. restraining           0.000000000000 Eh    ::
         :: total charge               0.000000000000 e     ::
         :::::::::::::::::::::::::::::::::::::::::::::::::::::


Property printout bound to 'properties.out'

           -------------------------------------------------
          | TOTAL ENERGY              -62.809457410905 Eh   |
          | GRADIENT NORM               0.050143887094 Eh/α |
          | HOMO-LUMO GAP               4.295734734389 eV   |
           -------------------------------------------------

------------------------------------------------------------------------
 * finished run on 2023/12/07 at 01:17:17.946     
------------------------------------------------------------------------
 total:
 * wall-time:     0 d,  0 h,  0 min,  0.047 sec
 *  cpu-time:     0 d,  0 h,  0 min,  0.044 sec
 * ratio c/w:     0.933 speedup
 SCF:
 * wall-time:     0 d,  0 h,  0 min,  0.035 sec
 *  cpu-time:     0 d,  0 h,  0 min,  0.036 sec
 * ratio c/w:     1.034 speedup


-------------------------   --------------------
FINAL SINGLE POINT ENERGY       -62.809457410900
-------------------------   --------------------

------------------------------------------------------------------------------
                         ORCA GEOMETRY RELAXATION STEP
------------------------------------------------------------------------------

Reading the OPT-File                    .... done
Getting information on internals        .... done
Copying old internal coords+grads       .... done
Making the new internal coordinates     .... (new redundants).... done
Validating the new internal coordinates .... (new redundants).... done
Calculating the B-matrix                .... done
Calculating the G,G- and P matrices     .... done
Transforming gradient to internals      .... done
Projecting the internal gradient        .... done
Number of atoms                         ....  30
Number of internal coordinates          .... 144
Current Energy                          ....   -62.809457411 Eh
Current gradient norm                   ....     0.050143887 Eh/bohr
Maximum allowed component of the step   ....  0.300
Current trust radius                    ....  0.300
Updating the Hessian (BFGS)             .... done
Forming the augmented Hessian           .... done
Diagonalizing the augmented Hessian     .... done
Last element of RFO vector              ....  0.961227260
Lowest eigenvalues of augmented Hessian:
 -0.005162964  0.010048899  0.010255719  0.010371286  0.010870524
Length of the computed step             ....  0.286880565
The final length of the internal step   ....  0.286880565
Converting the step to cartesian space:
 Initial RMS(Int)=    0.0239067138
Transforming coordinates:
 Iter   0:  RMS(Cart)=    0.0810120525 RMS(Int)=    0.5210015076
 Iter   1:  RMS(Cart)=    0.0022916111 RMS(Int)=    0.0012773878
 Iter   2:  RMS(Cart)=    0.0001845191 RMS(Int)=    0.0000834137
 Iter   3:  RMS(Cart)=    0.0000143341 RMS(Int)=    0.0000111804
 Iter   4:  RMS(Cart)=    0.0000014583 RMS(Int)=    0.0000007677
 Iter   5:  RMS(Cart)=    0.0000001408 RMS(Int)=    0.0000001168
 Iter   6:  RMS(Cart)=    0.0000000148 RMS(Int)=    0.0000000078
done
Storing new coordinates                 .... done

                                .--------------------.
          ----------------------|Geometry convergence|-------------------------
          Item                value                   Tolerance       Converged
          ---------------------------------------------------------------------
          Energy change      -0.0091367942            0.0000050000      NO
          RMS gradient        0.0028907401            0.0001000000      NO
          MAX gradient        0.0206978007            0.0003000000      NO
          RMS step            0.0239067138            0.0020000000      NO
          MAX step            0.0844757993            0.0040000000      NO
          ........................................................
          Max(Bonds)      0.0199      Max(Angles)    2.75
          Max(Dihed)        4.84      Max(Improp)    0.00
          ---------------------------------------------------------------------

The optimization has not yet converged - more geometry cycles are needed


    ---------------------------------------------------------------------------
                         Redundant Internal Coordinates
                            (Angstroem and degrees)

        Definition                    Value    dE/dq     Step     New-Value
    ----------------------------------------------------------------------------
     1. B(C   1,O   0)                1.2075  0.005905 -0.0073    1.2002   
     2. B(O   2,C   1)                1.3360  0.004621 -0.0074    1.3287   
     3. B(C   3,C   1)                1.5157 -0.003337  0.0063    1.5220   
     4. B(O   4,C   3)                1.4169  0.007242 -0.0162    1.4007   
     5. B(C   5,C   3)                1.5394 -0.003518  0.0075    1.5468   
     6. B(O   6,C   5)                1.4130  0.009066 -0.0199    1.3931   
     7. B(C   7,C   5)                1.5428 -0.000844  0.0010    1.5437   
     8. B(O   8,C   7)                1.4166  0.002872 -0.0066    1.4100   
     9. B(C   9,C   7)                1.5310  0.000094 -0.0021    1.5289   
    10. B(O  10,C   9)                1.4227  0.004235 -0.0096    1.4131   
    11. B(C  11,C   9)                1.5264 -0.000746  0.0005    1.5269   
    12. B(O  12,C  11)                1.4226  0.000790 -0.0019    1.4206   
    13. B(P  13,O  12)                1.5969  0.000461 -0.0009    1.5960   
    14. B(O  14,P  13)                1.4730  0.020698 -0.0154    1.4576   
    15. B(O  15,P  13)                1.5902  0.003827 -0.0039    1.5863   
    16. B(O  16,P  13)                1.6001 -0.004928  0.0054    1.6056   
    17. B(H  17,O   2)                0.9731  0.001335 -0.0033    0.9698   
    18. B(H  18,C   3)                1.0901 -0.000531  0.0006    1.0907   
    19. B(H  19,O   4)                0.9662  0.000578 -0.0023    0.9639   
    20. B(H  20,C   5)                1.0977 -0.001211  0.0028    1.1005   
    21. B(H  21,O   6)                0.9698  0.001424 -0.0045    0.9653   
    22. B(H  22,C   7)                1.1018 -0.000510  0.0017    1.1035   
    23. B(H  23,O   8)                0.9652  0.000609 -0.0027    0.9624   
    24. B(H  24,C   9)                1.0980 -0.000017  0.0006    1.0986   
    25. B(H  25,O  10)                0.9672  0.001656 -0.0047    0.9625   
    26. B(H  26,C  11)                1.0911  0.000277 -0.0013    1.0898   
    27. B(H  27,C  11)                1.0950  0.000091 -0.0002    1.0948   
    28. B(H  28,O  15)                0.9600  0.001956 -0.0055    0.9546   
    29. B(H  29,O  16)                0.9585  0.002208 -0.0066    0.9519   
    30. A(O   2,C   1,C   3)          113.02  0.001456   -0.30    112.73   
    31. A(O   0,C   1,C   3)          124.73  0.004532   -1.01    123.73   
    32. A(O   0,C   1,O   2)          122.24 -0.005992    1.32    123.57   
    33. A(C   1,O   2,H  17)          107.46 -0.010131    2.75    110.21   
    34. A(C   5,C   3,H  18)          111.71  0.000409   -0.57    111.14   
    35. A(O   4,C   3,C   5)          110.55 -0.000799    0.48    111.03   
    36. A(C   1,C   3,H  18)          110.26 -0.000532   -0.06    110.20   
    37. A(C   1,C   3,C   5)          109.04  0.001939   -0.73    108.32   
    38. A(O   4,C   3,H  18)          105.75  0.000401    0.02    105.78   
    39. A(C   1,C   3,O   4)          109.48 -0.001549    0.95    110.42   
    40. A(C   3,O   4,H  19)          107.61 -0.003092    0.86    108.47   
    41. A(C   3,C   5,H  20)          108.15  0.000153   -0.48    107.67   
    42. A(C   3,C   5,O   6)          110.91 -0.001442    0.85    111.76   
    43. A(O   6,C   5,C   7)          110.54 -0.001066    0.86    111.41   
    44. A(C   3,C   5,C   7)          113.80  0.002289   -1.00    112.80   
    45. A(C   7,C   5,H  20)          108.05 -0.000346   -0.30    107.76   
    46. A(O   6,C   5,H  20)          104.94  0.000314    0.10    105.04   
    47. A(C   5,O   6,H  21)          106.62 -0.002552    0.70    107.32   
    48. A(O   8,C   7,C   9)          107.32  0.002692   -1.32    105.99   
    49. A(C   9,C   7,H  22)          108.46 -0.000474    0.17    108.63   
    50. A(C   5,C   7,H  22)          107.15  0.001444   -0.47    106.68   
    51. A(O   8,C   7,H  22)          108.81 -0.001874    1.59    110.40   
    52. A(C   5,C   7,C   9)          113.76 -0.000476   -0.26    113.51   
    53. A(C   5,C   7,O   8)          111.23 -0.001444    0.40    111.64   
    54. A(C   7,O   8,H  23)          108.10 -0.002876    0.76    108.86   
    55. A(O  10,C   9,C  11)          109.50 -0.001653    0.80    110.30   
    56. A(C   7,C   9,C  11)          110.61 -0.000014   -0.50    110.11   
    57. A(C   7,C   9,O  10)          109.67  0.002006   -0.67    109.00   
    58. A(C  11,C   9,H  24)          108.30  0.001095   -0.53    107.77   
    59. A(O  10,C   9,H  24)          108.39 -0.001932    1.64    110.03   
    60. A(C   7,C   9,H  24)          110.33  0.000421   -0.64    109.69   
    61. A(C   9,O  10,H  25)          105.92 -0.002409    0.65    106.57   
    62. A(O  12,C  11,H  27)          106.55  0.000805   -0.09    106.46   
    63. A(C   9,C  11,H  27)          110.51  0.000021    0.07    110.58   
    64. A(O  12,C  11,H  26)          110.83 -0.000472    0.12    110.95   
    65. A(C   9,C  11,H  26)          110.78  0.002988   -1.20    109.59   
    66. A(H  26,C  11,H  27)          109.07 -0.001576    0.75    109.82   
    67. A(C   9,C  11,O  12)          109.02 -0.001864    0.39    109.41   
    68. A(C  11,O  12,P  13)          116.70  0.000861   -0.21    116.49   
    69. A(O  15,P  13,O  16)          103.24 -0.007667    1.98    105.22   
    70. A(O  14,P  13,O  16)          113.32 -0.000243    0.46    113.77   
    71. A(O  12,P  13,O  16)          103.87  0.004860   -1.19    102.68   
    72. A(O  14,P  13,O  15)          115.78  0.001236   -0.11    115.66   
    73. A(O  12,P  13,O  15)          102.35  0.005526   -1.52    100.83   
    74. A(O  12,P  13,O  14)          116.59 -0.003479    0.37    116.96   
    75. A(P  13,O  15,H  28)          111.39 -0.001384    0.31    111.70   
    76. A(P  13,O  16,H  29)          109.56  0.000570   -0.17    109.39   
    77. D(H  17,O   2,C   1,C   3)   -177.70 -0.000237    0.05   -177.65   
    78. D(H  17,O   2,C   1,O   0)      1.88 -0.000737    2.23      4.11   
    79. D(O   4,C   3,C   1,O   0)     48.32 -0.000067    0.60     48.93   
    80. D(C   5,C   3,C   1,O   2)    106.84  0.000097    2.18    109.01   
    81. D(H  18,C   3,C   1,O   0)    164.27 -0.000789    1.14    165.41   
    82. D(O   4,C   3,C   1,O   2)   -132.10 -0.000633    2.90   -129.20   
    83. D(H  18,C   3,C   1,O   2)    -16.16 -0.001355    3.44    -12.72   
    84. D(C   5,C   3,C   1,O   0)    -72.74  0.000664   -0.12    -72.86   
    85. D(H  19,O   4,C   3,C   5)     56.95 -0.000347    2.16     59.11   
    86. D(H  19,O   4,C   3,H  18)    178.03 -0.000055    1.75    179.78   
    87. D(H  19,O   4,C   3,C   1)    -63.19 -0.001257    2.17    -61.02   
    88. D(C   7,C   5,C   3,C   1)    -57.67 -0.001761    3.31    -54.37   
    89. D(O   6,C   5,C   3,O   4)     56.54  0.000225    1.21     57.76   
    90. D(O   6,C   5,C   3,H  18)    -60.93 -0.000018    1.23    -59.70   
    91. D(O   6,C   5,C   3,C   1)    176.95 -0.000948    2.22    179.17   
    92. D(H  20,C   5,C   3,H  18)   -175.49  0.000290    0.92   -174.56   
    93. D(H  20,C   5,C   3,O   4)    -58.02  0.000533    0.90    -57.11   
    94. D(H  20,C   5,C   3,C   1)     62.39 -0.000641    1.91     64.30   
    95. D(C   7,C   5,C   3,H  18)     64.45 -0.000831    2.32     66.77   
    96. D(C   7,C   5,C   3,O   4)   -178.07 -0.000588    2.30   -175.78   
    97. D(H  21,O   6,C   5,H  20)   -173.46  0.000347   -0.92   -174.38   
    98. D(H  21,O   6,C   5,C   7)    -57.19 -0.000400   -0.80    -57.99   
    99. D(H  21,O   6,C   5,C   3)     69.99  0.000696   -0.83     69.17   
   100. D(H  22,C   7,C   5,C   3)   -169.54  0.000031   -0.86   -170.40   
   101. D(C   9,C   7,C   5,H  20)   -169.80 -0.001261    0.39   -169.41   
   102. D(C   9,C   7,C   5,O   6)     75.89 -0.000880   -0.02     75.87   
   103. D(C   9,C   7,C   5,C   3)    -49.68  0.000139   -1.10    -50.78   
   104. D(O   8,C   7,C   5,H  20)    -48.46  0.000836   -1.23    -49.69   
   105. D(O   8,C   7,C   5,O   6)   -162.78  0.001216   -1.64   -164.42   
   106. D(H  22,C   7,C   5,O   6)    -43.97 -0.000987    0.22    -43.75   
   107. D(O   8,C   7,C   5,C   3)     71.65  0.002235   -2.72     68.93   
   108. D(H  22,C   7,C   5,H  20)     70.35 -0.001368    0.63     70.98   
   109. D(H  23,O   8,C   7,H  22)    -57.56  0.000617   -2.02    -59.58   
   110. D(H  23,O   8,C   7,C   9)   -174.72  0.000698   -2.38   -177.10   
   111. D(H  23,O   8,C   7,C   5)     60.25  0.000373   -1.41     58.84   
   112. D(H  24,C   9,C   7,H  22)   -171.59 -0.000250    1.16   -170.42   
   113. D(H  24,C   9,C   7,C   5)     69.30 -0.001445    1.77     71.07   
   114. D(C  11,C   9,C   7,H  22)    -51.78  0.001377   -0.27    -52.05   
   115. D(C  11,C   9,C   7,O   8)     65.61  0.000370    0.99     66.61   
   116. D(C  11,C   9,C   7,C   5)   -170.90  0.000183    0.34   -170.56   
   117. D(O  10,C   9,C   7,H  22)     69.09  0.000616   -0.04     69.05   
   118. D(H  24,C   9,C   7,O   8)    -54.19 -0.001258    2.43    -51.77   
   119. D(O  10,C   9,C   7,O   8)   -173.51 -0.000391    1.22   -172.29   
   120. D(O  10,C   9,C   7,C   5)    -50.02 -0.000579    0.57    -49.46   
   121. D(H  25,O  10,C   9,H  24)     70.64 -0.000373    0.09     70.73   
   122. D(H  25,O  10,C   9,C  11)    -47.31  0.000359   -0.61    -47.92   
[...]
     44      -0.000125   0.000434   0.000013   0.000010  -0.000046   0.000077
     45       0.000073  -0.000009  -0.000010  -0.000007   0.000047  -0.043560
     46       0.000283  -0.001129   0.000020   0.000013  -0.000095   0.044024
     47      -0.000022   0.000232   0.000010   0.000000  -0.000004  -0.008101
     48      -0.009352   0.058668  -0.000536   0.000015   0.000055   0.000822
     49      -0.002759   0.017977  -0.000165  -0.000004   0.000024   0.000414
     50      -0.001102   0.007178  -0.000044   0.000011  -0.000029   0.000045
     51       0.121063  -0.009538   0.000885  -0.000290   0.000018  -0.000384
     52       0.080131  -0.005256   0.000440   0.000306   0.000221  -0.000225
     53       0.171676  -0.013297   0.001036  -0.000186   0.000033  -0.000606
     54      -0.000823   0.000169   0.001153  -0.000439  -0.001507  -0.000074
     55       0.000200   0.000184   0.001200   0.002345   0.000085  -0.000006
     56       0.002428  -0.000233  -0.000836  -0.006019   0.001343   0.000113
     57       0.000464   0.000398  -0.001661   0.550486   0.003240  -0.000188
     58      -0.000534  -0.000586  -0.000546   0.255860   0.001441  -0.000033
     59      -0.003308  -0.000201   0.002459  -0.792196  -0.004621   0.000222
     60       0.001847   0.002129   0.005813  -0.001702  -0.000275   0.000123
     61      -0.000210   0.000278   0.002640   0.001724   0.000046   0.000011
     62      -0.000944  -0.001157  -0.003565   0.000207   0.000073  -0.000105
     63      -0.002382   0.006063   0.675807   0.002249  -0.040720  -0.000210
     64      -0.001376   0.000827   0.116542   0.000284  -0.007281  -0.000045
     65       0.003821  -0.005733  -0.722544  -0.002404   0.044333   0.000072
     66       0.000179   0.000094   0.000461   0.000320   0.000133  -0.000063
     67      -0.010425  -0.001442  -0.001380  -0.000528   0.003548   0.000110
     68      -0.002511  -0.000620   0.000488  -0.000017  -0.000052   0.000012
     69       0.415143   0.068912   0.001445  -0.001162  -0.000385  -0.000167
     70      -0.810532  -0.141017  -0.002430   0.002555   0.000316  -0.000311
     71      -0.302832  -0.049795  -0.000774   0.000440   0.000228  -0.000062
     72       0.000564   0.000074   0.000230   0.000063   0.001846   0.000002
     73      -0.004141  -0.000644   0.001030   0.000233   0.003170  -0.000104
     74      -0.000395  -0.000874   0.000889   0.000166   0.000173   0.000150
     75       0.000669  -0.000516   0.042941  -0.003852   0.698173   0.001111
     76      -0.000384  -0.000129   0.027558  -0.002712   0.468208   0.000797
     77      -0.000368  -0.000131  -0.032306   0.002994  -0.534546  -0.000972
     78       0.000320  -0.001336   0.000130  -0.000047  -0.000228   0.000135
     79       0.000017  -0.000725  -0.000216  -0.000004   0.001079   0.000378
     80       0.000938  -0.001161   0.000192  -0.000008  -0.000943  -0.000359
     81       0.000574  -0.000544  -0.000500   0.000078   0.001312  -0.000103
     82      -0.000640   0.000188   0.000315  -0.000048  -0.000443   0.000336
     83      -0.001071   0.001441   0.000642  -0.000109   0.000812   0.000655
     84       0.000575  -0.006224   0.000120   0.000204  -0.001097   0.689957
     85      -0.002061   0.010882  -0.000175  -0.000223   0.001288  -0.709883
     86       0.000031  -0.001225  -0.000061   0.000028  -0.000220   0.126364
     87       0.147346  -0.934250   0.008466  -0.000194  -0.000992  -0.011493
     88       0.050082  -0.295252   0.002556  -0.000013  -0.000383  -0.004177
     89       0.010161  -0.091793   0.000931  -0.000125   0.000059  -0.000572


-----------
IR SPECTRUM
-----------

 Mode   freq       eps      Int      T**2         TX        TY        TZ
       cm**-1   L/(mol*cm) km/mol    a.u.
----------------------------------------------------------------------------
  6:     47.82   0.002179   11.01  0.014221  (-0.091250  0.045629  0.061748)
  7:     56.81   0.000808    4.08  0.004437  ( 0.042885 -0.050649  0.005665)
  8:     70.09   0.000780    3.94  0.003475  ( 0.055094  0.012292 -0.016979)
  9:     85.01   0.000455    2.30  0.001671  (-0.032949  0.023857 -0.004029)
 10:     87.93   0.002467   12.47  0.008756  ( 0.061432  0.008241  0.070098)
 11:    113.15   0.000928    4.69  0.002560  (-0.043165 -0.024465 -0.009894)
 12:    115.90   0.002313   11.69  0.006228  ( 0.050143  0.055552  0.025051)
 13:    144.60   0.000850    4.30  0.001835  ( 0.036686 -0.019936  0.009555)
 14:    164.98   0.000653    3.30  0.001235  (-0.019026 -0.014375 -0.025807)
 15:    182.01   0.000468    2.36  0.000802  (-0.020637 -0.000645 -0.019388)
 16:    208.85   0.002611   13.20  0.003902  ( 0.015901  0.060271 -0.004009)
 17:    215.88   0.002921   14.76  0.004223  ( 0.051530  0.011618  0.037848)
 18:    244.16   0.007968   40.27  0.010184  (-0.044376 -0.024649  0.087219)
 19:    271.37   0.008689   43.91  0.009992  (-0.013993  0.032203 -0.093592)
 20:    284.35   0.000829    4.19  0.000909  ( 0.003752  0.029325 -0.005955)
 21:    312.10   0.004969   25.11  0.004968  (-0.018452  0.041572 -0.053848)
 22:    318.91   0.008766   44.30  0.008578  ( 0.048488 -0.001795 -0.078888)
 23:    324.07   0.006937   35.06  0.006680  ( 0.068227  0.031502  0.032129)
 24:    328.56   0.012987   65.63  0.012335  (-0.013865  0.107783 -0.022929)
 25:    345.71   0.020570  103.95  0.018568  (-0.016091 -0.128161 -0.043407)
 26:    371.24   0.004192   21.18  0.003523  ( 0.016178 -0.057101  0.001117)
 27:    383.87   0.007542   38.12  0.006131  (-0.061860  0.017974  0.044516)
 28:    397.30   0.004243   21.44  0.003333  ( 0.017185 -0.049094  0.025041)
 29:    419.99   0.001176    5.94  0.000874  (-0.015857 -0.024942  0.000161)
 30:    427.28   0.010014   50.61  0.007314  ( 0.016988  0.065608 -0.052162)
 31:    443.63   0.006401   32.35  0.004502  (-0.053724 -0.031217 -0.025327)
 32:    476.78   0.029787  150.53  0.019496  ( 0.074379 -0.092531  0.073497)
 33:    488.29   0.027463  138.79  0.017551  (-0.088999  0.015326  0.096931)
 34:    509.80   0.013832   69.90  0.008467  (-0.084561  0.026076 -0.025228)
 35:    527.79   0.029029  146.70  0.017164  (-0.031329 -0.119905 -0.042485)
 36:    552.88   0.009085   45.91  0.005128  ( 0.036708  0.022705  0.057138)
 37:    566.06   0.004777   24.14  0.002633  ( 0.048615  0.007278 -0.014733)
 38:    594.88   0.049826  251.80  0.026138  (-0.112397  0.108904  0.040552)
 39:    631.13   0.011155   56.37  0.005516  (-0.058007  0.020401 -0.041650)
 40:    663.64   0.024043  121.51  0.011306  (-0.032706  0.099134  0.020213)
 41:    719.32   0.030169  152.46  0.013088  (-0.047067  0.047654  0.092746)
 42:    742.67   0.023306  117.78  0.009793  (-0.075105  0.061774 -0.018343)
 43:    816.84   0.025715  129.95  0.009824  (-0.015346  0.007871  0.097605)
 44:    856.48   0.008169   41.28  0.002976  (-0.033563  0.000617  0.043006)
 45:    877.06   0.009218   46.58  0.003280  ( 0.025488  0.012647 -0.049701)
 46:    916.32   0.005788   29.25  0.001971  (-0.034669  0.011252 -0.025349)
 47:    927.56   0.110397  557.90  0.037141  ( 0.120383  0.145712  0.037649)
 48:    950.83   0.001528    7.72  0.000502  ( 0.005295 -0.010153  0.019247)
 49:    964.99   0.093757  473.81  0.030319  ( 0.064677 -0.056131  0.151610)
 50:   1019.47   0.002276   11.50  0.000697  ( 0.019954  0.016826  0.003922)
 51:   1022.51   0.001729    8.74  0.000528  ( 0.011840 -0.019676 -0.000568)
 52:   1071.73   0.011216   56.68  0.003266  (-0.013327  0.054639 -0.010142)
 53:   1092.73   0.002253   11.39  0.000643  (-0.003688 -0.020545 -0.014414)
 54:   1095.83   0.015889   80.29  0.004525  (-0.046952 -0.021181 -0.043261)
 55:   1100.01   0.024665  124.65  0.006997  (-0.011888  0.040528  0.072204)
 56:   1105.92   0.049459  249.94  0.013956  ( 0.089301  0.041125  0.065500)
 57:   1123.36   0.001469    7.42  0.000408  (-0.015810  0.009103 -0.008678)
 58:   1136.59   0.004011   20.27  0.001101  ( 0.011734 -0.002927 -0.030905)
 59:   1168.63   0.026879  135.84  0.007178  ( 0.022412  0.064932 -0.049590)
 60:   1184.79   0.002348   11.87  0.000618  (-0.023069 -0.003295  0.008685)
 61:   1204.92   0.001896    9.58  0.000491  (-0.012842 -0.015533  0.009218)
 62:   1218.71   0.005227   26.41  0.001338  (-0.011544  0.009810 -0.033300)
 63:   1230.63   0.020020  101.17  0.005077  (-0.042231 -0.025435 -0.051442)
 64:   1254.49   0.021319  107.73  0.005303  ( 0.067890 -0.009628 -0.024522)
 65:   1257.87   0.012419   62.76  0.003081  ( 0.037215 -0.039149  0.012781)
 66:   1274.49   0.052618  265.91  0.012884  (-0.074756  0.072143 -0.045723)
 67:   1292.67   0.010471   52.92  0.002528  (-0.046136 -0.012782 -0.015360)
 68:   1302.65   0.026629  134.57  0.006379  (-0.020508 -0.071334 -0.029497)
 69:   1315.68   0.005092   25.73  0.001208  (-0.002004  0.030642 -0.016275)
 70:   1339.53   0.021413  108.22  0.004989  ( 0.040150 -0.025460  0.052234)
 71:   1343.79   0.005886   29.75  0.001367  ( 0.033648  0.004803  0.014548)
 72:   1348.63   0.021915  110.75  0.005071  ( 0.023773  0.058453  0.033001)
 73:   1353.35   0.003433   17.35  0.000792  ( 0.017628 -0.021218  0.005535)
 74:   1358.85   0.009940   50.23  0.002283  (-0.001565 -0.009181  0.046861)
 75:   1457.33   0.000209    1.06  0.000045  (-0.000994  0.006529 -0.001106)
 76:   1752.43   0.081941  414.10  0.014592  ( 0.043651  0.044250 -0.103577)
 77:   2906.57   0.007248   36.63  0.000778  (-0.001463 -0.027830 -0.001242)
 78:   2915.80   0.000186    0.94  0.000020  ( 0.002506  0.002075 -0.003056)
 79:   2924.08   0.001353    6.84  0.000144  ( 0.000834  0.011854 -0.001783)
 80:   2942.14   0.000085    0.43  0.000009  ( 0.000452  0.002485 -0.001611)
 81:   2954.91   0.003813   19.27  0.000403  ( 0.000439  0.019921  0.002380)
 82:   2981.15   0.000221    1.12  0.000023  (-0.002605 -0.000941  0.003928)
 83:   3317.43   0.023837  120.46  0.002242  ( 0.011037  0.017327  0.042664)
 84:   3344.15   0.040672  205.54  0.003795  ( 0.040312 -0.046217  0.005860)
 85:   3404.46   0.066017  333.62  0.006051  (-0.065337 -0.025590 -0.033579)
 86:   3486.07   0.011517   58.20  0.001031  ( 0.028525  0.007168 -0.012879)
 87:   3515.54   0.007547   38.14  0.000670  ( 0.003146  0.013476 -0.021872)
 88:   3539.92   0.008551   43.21  0.000754  ( 0.012170  0.023570 -0.007083)
 89:   3603.49   0.012996   65.68  0.001125  ( 0.030483 -0.012015  0.007205)

* The epsilon (eps) is given for a Dirac delta lineshape.
** The dipole moment derivative (T) already includes vibrational overlap.

The first frequency considered to be a vibration is 6
The total number of vibrations considered is 84


--------------------------
THERMOCHEMISTRY AT 298.15K
--------------------------

Temperature         ... 298.15 K
Pressure            ... 1.00 atm
Total Mass          ... 276.13 AMU

Throughout the following assumptions are being made:
  (1) The electronic state is orbitally nondegenerate
  (2) There are no thermally accessible electronically excited states
  (3) Hindered rotations indicated by low frequency modes are not
      treated as such but are treated as vibrations and this may
      cause some error
  (4) All equations used are the standard statistical mechanics
      equations for an ideal gas
  (5) All vibrations are strictly harmonic

freq.      47.82  E(vib)   ...       0.53 
freq.      56.81  E(vib)   ...       0.51 
freq.      70.09  E(vib)   ...       0.50 
freq.      85.01  E(vib)   ...       0.48 
freq.      87.93  E(vib)   ...       0.48 
freq.     113.15  E(vib)   ...       0.45 
freq.     115.90  E(vib)   ...       0.44 
freq.     144.60  E(vib)   ...       0.41 
freq.     164.98  E(vib)   ...       0.39 
freq.     182.01  E(vib)   ...       0.37 
freq.     208.85  E(vib)   ...       0.34 
freq.     215.88  E(vib)   ...       0.34 
freq.     244.16  E(vib)   ...       0.31 
freq.     271.37  E(vib)   ...       0.29 
freq.     284.35  E(vib)   ...       0.28 
freq.     312.10  E(vib)   ...       0.25 
freq.     318.91  E(vib)   ...       0.25 
freq.     324.07  E(vib)   ...       0.25 
freq.     328.56  E(vib)   ...       0.24 
freq.     345.71  E(vib)   ...       0.23 
freq.     371.24  E(vib)   ...       0.21 
freq.     383.87  E(vib)   ...       0.20 
freq.     397.30  E(vib)   ...       0.20 
freq.     419.99  E(vib)   ...       0.18 
freq.     427.28  E(vib)   ...       0.18 
freq.     443.63  E(vib)   ...       0.17 
freq.     476.78  E(vib)   ...       0.15 
freq.     488.29  E(vib)   ...       0.15 
freq.     509.80  E(vib)   ...       0.14 
freq.     527.79  E(vib)   ...       0.13 
freq.     552.88  E(vib)   ...       0.12 
freq.     566.06  E(vib)   ...       0.11 
freq.     594.88  E(vib)   ...       0.10 
freq.     631.13  E(vib)   ...       0.09 
freq.     663.64  E(vib)   ...       0.08 
freq.     719.32  E(vib)   ...       0.07 
freq.     742.67  E(vib)   ...       0.06 
freq.     816.84  E(vib)   ...       0.05 
freq.     856.48  E(vib)   ...       0.04 
freq.     877.06  E(vib)   ...       0.04 
freq.     916.32  E(vib)   ...       0.03 
freq.     927.56  E(vib)   ...       0.03 
freq.     950.83  E(vib)   ...       0.03 
freq.     964.99  E(vib)   ...       0.03 
freq.    1019.47  E(vib)   ...       0.02 
freq.    1022.51  E(vib)   ...       0.02 
freq.    1071.73  E(vib)   ...       0.02 
freq.    1092.73  E(vib)   ...       0.02 
freq.    1095.83  E(vib)   ...       0.02 
freq.    1100.01  E(vib)   ...       0.02 
freq.    1105.92  E(vib)   ...       0.02 
freq.    1123.36  E(vib)   ...       0.01 
freq.    1136.59  E(vib)   ...       0.01 
freq.    1168.63  E(vib)   ...       0.01 
freq.    1184.79  E(vib)   ...       0.01 
freq.    1204.92  E(vib)   ...       0.01 
freq.    1218.71  E(vib)   ...       0.01 
freq.    1230.63  E(vib)   ...       0.01 
freq.    1254.49  E(vib)   ...       0.01 
freq.    1257.87  E(vib)   ...       0.01 
freq.    1274.49  E(vib)   ...       0.01 
freq.    1292.67  E(vib)   ...       0.01 
freq.    1302.65  E(vib)   ...       0.01 
freq.    1315.68  E(vib)   ...       0.01 
freq.    1339.53  E(vib)   ...       0.01 
freq.    1343.79  E(vib)   ...       0.01 
freq.    1348.63  E(vib)   ...       0.01 
freq.    1353.35  E(vib)   ...       0.01 
freq.    1358.85  E(vib)   ...       0.01 
freq.    1457.33  E(vib)   ...       0.00 
freq.    1752.43  E(vib)   ...       0.00 
freq.    2906.57  E(vib)   ...       0.00 
freq.    2915.80  E(vib)   ...       0.00 
freq.    2924.08  E(vib)   ...       0.00 
freq.    2942.14  E(vib)   ...       0.00 
freq.    2954.91  E(vib)   ...       0.00 
freq.    2981.15  E(vib)   ...       0.00 
freq.    3317.43  E(vib)   ...       0.00 
freq.    3344.15  E(vib)   ...       0.00 
freq.    3404.46  E(vib)   ...       0.00 
freq.    3486.07  E(vib)   ...       0.00 
freq.    3515.54  E(vib)   ...       0.00 
freq.    3539.92  E(vib)   ...       0.00 
freq.    3603.49  E(vib)   ...       0.00 

------------
INNER ENERGY
------------

The inner energy is: U= E(el) + E(ZPE) + E(vib) + E(rot) + E(trans)
    E(el)   - is the total energy from the electronic structure calculation
              = E(kin-el) + E(nuc-el) + E(el-el) + E(nuc-nuc)
    E(ZPE)  - the the zero temperature vibrational energy from the frequency calculation
    E(vib)  - the the finite temperature correction to E(ZPE) due to population
              of excited vibrational states
    E(rot)  - is the rotational thermal energy
    E(trans)- is the translational thermal energy

Summary of contributions to the inner energy U:
Electronic energy                ...    -62.82359669 Eh
Zero point energy                ...      0.21508683 Eh     134.97 kcal/mol
Thermal vibrational correction   ...      0.01622162 Eh      10.18 kcal/mol
Thermal rotational correction    ...      0.00141627 Eh       0.89 kcal/mol
Thermal translational correction ...      0.00141627 Eh       0.89 kcal/mol
-----------------------------------------------------------------------
Total thermal energy                    -62.58945569 Eh


Summary of corrections to the electronic energy:
(perhaps to be used in another calculation)
Total thermal correction                  0.01905416 Eh      11.96 kcal/mol
Non-thermal (ZPE) correction              0.21508683 Eh     134.97 kcal/mol
-----------------------------------------------------------------------
Total correction                          0.23414100 Eh     146.93 kcal/mol


--------
ENTHALPY
--------

The enthalpy is H = U + kB*T
                kB is Boltzmann's constant
Total free energy                 ...    -62.58945569 Eh 
Thermal Enthalpy correction       ...      0.00094421 Eh       0.59 kcal/mol
-----------------------------------------------------------------------
Total Enthalpy                    ...    -62.58851149 Eh


Note: Only C1 symmetry has been detected, increase convergence thresholds 
      if your molecule has a higher symmetry. Symmetry factor of 1.0 is   
      used for the rotational entropy correction. 
 

Note: Rotational entropy computed according to Herzberg 
Infrared and Raman Spectra, Chapter V,1, Van Nostrand Reinhold, 1945 
Point Group:  C1, Symmetry Number:   1  
Rotational constants in cm-1:     0.024452     0.010506     0.009031 

Vibrational entropy computed according to the QRRHO of S. Grimme
Chem.Eur.J. 2012 18 9955


-------
ENTROPY
-------

The entropy contributions are T*S = T*(S(el)+S(vib)+S(rot)+S(trans))
     S(el)   - electronic entropy
     S(vib)  - vibrational entropy
     S(rot)  - rotational entropy
     S(trans)- translational entropy
The entropies will be listed as multiplied by the temperature to get
units of energy

Electronic entropy                ...      0.00000000 Eh      0.00 kcal/mol
Vibrational entropy               ...      0.02811963 Eh     17.65 kcal/mol
Rotational entropy                ...      0.01563566 Eh      9.81 kcal/mol
Translational entropy             ...      0.02030977 Eh     12.74 kcal/mol
-----------------------------------------------------------------------
Final entropy term                ...      0.06406506 Eh     40.20 kcal/mol

In case the symmetry of your molecule has not been determined correctly
or in case you have a reason to use a different symmetry number we print 
out the resulting rotational entropy values for sn=1,12 :
 --------------------------------------------------------
|  sn= 1 | S(rot)=       0.01563566 Eh      9.81 kcal/mol|
|  sn= 2 | S(rot)=       0.01498120 Eh      9.40 kcal/mol|
|  sn= 3 | S(rot)=       0.01459837 Eh      9.16 kcal/mol|
|  sn= 4 | S(rot)=       0.01432675 Eh      8.99 kcal/mol|
|  sn= 5 | S(rot)=       0.01411606 Eh      8.86 kcal/mol|
|  sn= 6 | S(rot)=       0.01394391 Eh      8.75 kcal/mol|
|  sn= 7 | S(rot)=       0.01379837 Eh      8.66 kcal/mol|
|  sn= 8 | S(rot)=       0.01367229 Eh      8.58 kcal/mol|
|  sn= 9 | S(rot)=       0.01356108 Eh      8.51 kcal/mol|
|  sn=10 | S(rot)=       0.01346160 Eh      8.45 kcal/mol|
|  sn=11 | S(rot)=       0.01337161 Eh      8.39 kcal/mol|
|  sn=12 | S(rot)=       0.01328946 Eh      8.34 kcal/mol|
 --------------------------------------------------------


-------------------
GIBBS FREE ENERGY
-------------------

The Gibbs free energy is G = H - T*S

Total enthalpy                    ...    -62.58851149 Eh 
Total entropy correction          ...     -0.06406506 Eh    -40.20 kcal/mol
-----------------------------------------------------------------------
Final Gibbs free energy         ...    -62.65257654 Eh

For completeness - the Gibbs free energy minus the electronic energy
G-E(el)                           ...      0.17102015 Eh    107.32 kcal/mol



Timings for individual modules:

Sum of individual times         ...      445.946 sec (=   7.432 min)
Geometry relaxation             ...        3.073 sec (=   0.051 min)   0.7 %
Numerical frequency calculation ...      440.296 sec (=   7.338 min)  98.7 %
XTB module                      ...        2.577 sec (=   0.043 min)   0.6 %
                             ****ORCA TERMINATED NORMALLY****
TOTAL RUN TIME: 0 days 0 hours 7 minutes 28 seconds 521 msec
