
                                 *****************
                                 * O   R   C   A *
                                 *****************

                                            #,                                       
                                            ###                                      
                                            ####                                     
                                            #####                                    
                                            ######                                   
                                           ########,                                 
                                     ,,################,,,,,                         
                               ,,#################################,,                 
                          ,,##########################################,,             
                       ,#########################################, ''#####,          
                    ,#############################################,,   '####,        
                  ,##################################################,,,,####,       
                ,###########''''           ''''###############################       
              ,#####''   ,,,,##########,,,,          '''####'''          '####       
            ,##' ,,,,###########################,,,                        '##       
           ' ,,###''''                  '''############,,,                           
         ,,##''                                '''############,,,,        ,,,,,,###''
      ,#''                                            '''#######################'''  
     '                                                          ''''####''''         
             ,#######,   #######,   ,#######,      ##                                
            ,#'     '#,  ##    ##  ,#'     '#,    #''#        ######   ,####,        
            ##       ##  ##   ,#'  ##            #'  '#       #        #'  '#        
            ##       ##  #######   ##           ,######,      #####,   #    #        
            '#,     ,#'  ##    ##  '#,     ,#' ,#      #,         ##   #,  ,#        
             '#######'   ##     ##  '#######'  #'      '#     #####' # '####'        



                  #######################################################
                  #                        -***-                        #
                  #          Department of theory and spectroscopy      #
                  #    Directorship and core code : Frank Neese         #
                  #        Max Planck Institute fuer Kohlenforschung    #
                  #                Kaiser Wilhelm Platz 1               #
                  #                 D-45470 Muelheim/Ruhr               #
                  #                      Germany                        #
                  #                                                     #
                  #                  All rights reserved                #
                  #                        -***-                        #
                  #######################################################


                         Program Version 5.0.3 -  RELEASE  -


 With contributions from (in alphabetic order):
   Daniel Aravena         : Magnetic Suceptibility
   Michael Atanasov       : Ab Initio Ligand Field Theory (pilot matlab implementation)
   Alexander A. Auer      : GIAO ZORA, VPT2 properties, NMR spectrum
   Ute Becker             : Parallelization
   Giovanni Bistoni       : ED, misc. LED, open-shell LED, HFLD
   Martin Brehm           : Molecular dynamics
   Dmytro Bykov           : SCF Hessian
   Vijay G. Chilkuri      : MRCI spin determinant printing, contributions to CSF-ICE
   Dipayan Datta          : RHF DLPNO-CCSD density
   Achintya Kumar Dutta   : EOM-CC, STEOM-CC
   Dmitry Ganyushin       : Spin-Orbit,Spin-Spin,Magnetic field MRCI
   Miquel Garcia          : C-PCM and meta-GGA Hessian, CC/C-PCM, Gaussian charge scheme
   Yang Guo               : DLPNO-NEVPT2, F12-NEVPT2, CIM, IAO-localization
   Andreas Hansen         : Spin unrestricted coupled pair/coupled cluster methods
   Benjamin Helmich-Paris : MC-RPA, TRAH-SCF, COSX integrals
   Lee Huntington         : MR-EOM, pCC
   Robert Izsak           : Overlap fitted RIJCOSX, COSX-SCS-MP3, EOM
   Marcus Kettner         : VPT2
   Christian Kollmar      : KDIIS, OOCD, Brueckner-CCSD(T), CCSD density, CASPT2, CASPT2-K
   Simone Kossmann        : Meta GGA functionals, TD-DFT gradient, OOMP2, MP2 Hessian
   Martin Krupicka        : Initial AUTO-CI
   Lucas Lang             : DCDCAS
   Marvin Lechner         : AUTO-CI (C++ implementation), FIC-MRCC
   Dagmar Lenk            : GEPOL surface, SMD
   Dimitrios Liakos       : Extrapolation schemes; Compound Job, initial MDCI parallelization
   Dimitrios Manganas     : Further ROCIS development; embedding schemes
   Dimitrios Pantazis     : SARC Basis sets
   Anastasios Papadopoulos: AUTO-CI, single reference methods and gradients
   Taras Petrenko         : DFT Hessian,TD-DFT gradient, ASA, ECA, R-Raman, ABS, FL, XAS/XES, NRVS
   Peter Pinski           : DLPNO-MP2, DLPNO-MP2 Gradient
   Christoph Reimann      : Effective Core Potentials
   Marius Retegan         : Local ZFS, SOC
   Christoph Riplinger    : Optimizer, TS searches, QM/MM, DLPNO-CCSD(T), (RO)-DLPNO pert. Triples
   Tobias Risthaus        : Range-separated hybrids, TD-DFT gradient, RPA, STAB
   Michael Roemelt        : Original ROCIS implementation
   Masaaki Saitow         : Open-shell DLPNO-CCSD energy and density
   Barbara Sandhoefer     : DKH picture change effects
   Avijit Sen             : IP-ROCIS
   Kantharuban Sivalingam : CASSCF convergence, NEVPT2, FIC-MRCI
   Bernardo de Souza      : ESD, SOC TD-DFT
   Georgi Stoychev        : AutoAux, RI-MP2 NMR, DLPNO-MP2 response
   Willem Van den Heuvel  : Paramagnetic NMR
   Boris Wezisla          : Elementary symmetry handling
   Frank Wennmohs         : Technical directorship


 We gratefully acknowledge several colleagues who have allowed us to
 interface, adapt or use parts of their codes:
   Stefan Grimme, W. Hujo, H. Kruse, P. Pracht,  : VdW corrections, initial TS optimization,
                  C. Bannwarth, S. Ehlert          DFT functionals, gCP, sTDA/sTD-DF
   Ed Valeev, F. Pavosevic, A. Kumar             : LibInt (2-el integral package), F12 methods
   Garnet Chan, S. Sharma, J. Yang, R. Olivares  : DMRG
   Ulf Ekstrom                                   : XCFun DFT Library
   Mihaly Kallay                                 : mrcc  (arbitrary order and MRCC methods)
   Jiri Pittner, Ondrej Demel                    : Mk-CCSD
   Frank Weinhold                                : gennbo (NPA and NBO analysis)
   Christopher J. Cramer and Donald G. Truhlar   : smd solvation model
   Lars Goerigk                                  : TD-DFT with DH, B97 family of functionals
   V. Asgeirsson, H. Jonsson                     : NEB implementation
   FAccTs GmbH                                   : IRC, NEB, NEB-TS, DLPNO-Multilevel, CI-OPT
                                                   MM, QMMM, 2- and 3-layer-ONIOM, Crystal-QMMM,
                                                   LR-CPCM, SF, NACMEs, symmetry and pop. for TD-DFT,
                                                   nearIR, NL-DFT gradient (VV10), updates on ESD,
                                                   ML-optimized integration grids
   S Lehtola, MJT Oliveira, MAL Marques          : LibXC Library
   Liviu Ungur et al                             : ANISO software


 Your calculation uses the libint2 library for the computation of 2-el integrals
 For citations please refer to: http://libint.valeyev.net

 Your ORCA version has been built with support for libXC version: 5.1.0
 For citations please refer to: https://tddft.org/programs/libxc/

 This ORCA versions uses:
   CBLAS   interface :  Fast vector & matrix operations
   LAPACKE interface :  Fast linear algebra routines
   SCALAPACK package :  Parallel linear algebra routines
   Shared memory     :  Shared parallel matrices
   BLAS/LAPACK       :  OpenBLAS 0.3.15  USE64BITINT DYNAMIC_ARCH NO_AFFINITY Haswell SINGLE_THREADED
        Core in use  :  Haswell
   Copyright (c) 2011-2014, The OpenBLAS Project


Your calculation utilizes the semiempirical GFN2-xTB method
Please cite in your paper:
C. Bannwarth, Ehlert S., S. Grimme,  J. Chem. Theory Comput., 15, (2019), 1652.
   

================================================================================

================================================================================
                                        WARNINGS
                       Please study these warnings very carefully!
================================================================================


WARNING: Geometry Optimization
  ===> : Switching off AutoStart
         For restart on a previous wavefunction, please use MOREAD

WARNING: Found dipole moment calculation with XTB calculation
  ===> : Switching off dipole moment calculation


WARNING: TRAH-SCF for XTB is not implemented!
  ===> : Turning TRAH off!

================================================================================
                                       INPUT FILE
================================================================================
NAME = /tmp/C01172.inp
|  1> ! XTB2 opt numfreq
|  2> * XYZ 0 1
|  3> O 4.0999 -1.1928 -2.4792
|  4> P 3.4589 -0.7688 -1.2038
|  5> O 3.3282 0.8131 -1.0608
|  6> O 4.3382 -1.1604 0.0696
|  7> O 2.0135 -1.3714 -0.8969
|  8> C 1.2952 -0.9101 0.2421
|  9> C 0.2489 0.1389 -0.1665
| 10> O -0.6134 -0.3642 -1.2124
| 11> C -1.8580 -0.8829 -0.7679
| 12> O -1.6404 -1.9682 0.1156
| 13> C -2.7098 0.2182 -0.0954
| 14> O -3.5409 0.9025 -1.0534
| 15> C -1.8312 1.2760 0.5873
| 16> O -2.5188 1.8632 1.7047
| 17> C -0.5188 0.6615 1.0621
| 18> O 0.2523 1.6441 1.7597
| 19> H 4.0979 1.2600 -1.4554
| 20> H 4.7686 -2.0240 -0.0681
| 21> H 0.8165 -1.7894 0.6819
| 22> H 1.9816 -0.5035 0.9927
| 23> H 0.7861 0.9736 -0.6311
| 24> H -2.3912 -1.2644 -1.6459
| 25> H -1.3761 -2.7113 -0.4554
| 26> H -3.3979 -0.2340 0.6279
| 27> H -2.9690 1.1662 -1.7989
| 28> H -1.6203 2.1116 -0.0924
| 29> H -3.3875 2.1525 1.3636
| 30> H -0.7233 -0.1389 1.7831
| 31> H -0.3891 2.1028 2.3406
| 32> *
| 33> 
| 34>                          ****END OF INPUT****
================================================================================

                       *****************************
                       * Geometry Optimization Run *
                       *****************************

Geometry optimization settings:
Update method            Update   .... BFGS
Choice of coordinates    CoordSys .... Z-matrix Internals
Initial Hessian          InHess   .... Almoef's Model

Convergence Tolerances:
Energy Change            TolE     ....  5.0000e-06 Eh
Max. Gradient            TolMAXG  ....  3.0000e-04 Eh/bohr
RMS Gradient             TolRMSG  ....  1.0000e-04 Eh/bohr
Max. Displacement        TolMAXD  ....  4.0000e-03 bohr
RMS Displacement         TolRMSD  ....  2.0000e-03 bohr
Strict Convergence                ....  False
------------------------------------------------------------------------------
                        ORCA OPTIMIZATION COORDINATE SETUP
------------------------------------------------------------------------------

The optimization will be done in new redundant internal coordinates
Making redundant internal coordinates   ...  (new redundants) done
Evaluating the initial hessian          ...  (Almloef) done
Evaluating the coordinates              ...  done
Calculating the B-matrix                .... done
Calculating the G-matrix                .... done
Diagonalizing the G-matrix              .... done
Small eigenvalue found = 1.153e-02
Small eigenvalue found = 1.181e-02
Small eigenvalue found = 2.003e-02
The first mode is                       ....   73
The number of degrees of freedom        ....   81

    -----------------------------------------------------------------
                    Redundant Internal Coordinates


    -----------------------------------------------------------------
         Definition                    Initial Value    Approx d2E/dq
    -----------------------------------------------------------------
      1. B(P   1,O   0)                  1.4891         1.307146   
      2. B(O   2,P   1)                  1.5937         0.889917   
      3. B(O   3,P   1)                  1.5963         0.881626   
      4. B(O   4,P   1)                  1.5958         0.883222   
      5. B(C   5,O   4)                  1.4234         0.494976   
      6. B(C   6,C   5)                  1.5369         0.364208   
      7. B(O   7,C   6)                  1.4459         0.455741   
      8. B(C   8,O   7)                  1.4197         0.501682   
      9. B(O   9,C   8)                  1.4163         0.508131   
     10. B(C  10,C   8)                  1.5460         0.352197   
     11. B(O  11,C  10)                  1.4411         0.463826   
     12. B(C  12,C  10)                  1.5352         0.366454   
     13. B(O  13,C  12)                  1.4374         0.470130   
     14. B(C  14,C  12)                  1.5249         0.380585   
     15. B(C  14,C   6)                  1.5401         0.359957   
     16. B(O  15,C  14)                  1.4306         0.481981   
     17. B(H  16,O   2)                  0.9736         0.494645   
     18. B(H  17,O   3)                  0.9747         0.492650   
     19. B(H  18,C   5)                  1.0935         0.355497   
     20. B(H  19,C   5)                  1.0954         0.353046   
     21. B(H  20,C   6)                  1.0960         0.352282   
     22. B(H  21,C   8)                  1.0958         0.352538   
     23. B(H  22,O   9)                  0.9737         0.494434   
     24. B(H  23,C  10)                  1.0960         0.352301   
     25. B(H  24,O  11)                  0.9759         0.490458   
     26. B(H  25,C  12)                  1.0976         0.350201   
     27. B(H  26,O  13)                  0.9771         0.488335   
     28. B(H  27,C  14)                  1.0965         0.351610   
     29. B(H  28,O  15)                  0.9794         0.484171   
     30. A(O   2,P   1,O   3)          102.5387         0.559937   
     31. A(O   0,P   1,O   4)          116.5583         0.602964   
     32. A(O   3,P   1,O   4)          104.6480         0.559132   
     33. A(O   2,P   1,O   4)          106.4563         0.560129   
     34. A(O   0,P   1,O   2)          113.2527         0.603843   
     35. A(O   0,P   1,O   3)          112.1042         0.602754   
     36. A(P   1,O   2,H  16)          110.7578         0.416762   
     37. A(P   1,O   3,H  17)          110.3592         0.415769   
     38. A(P   1,O   4,C   5)          119.2483         0.468686   
     39. A(C   6,C   5,H  18)          110.9615         0.322290   
     40. A(H  18,C   5,H  19)          107.2896         0.289353   
     41. A(O   4,C   5,C   6)          110.6101         0.377325   
     42. A(O   4,C   5,H  19)          110.6343         0.336619   
     43. A(C   6,C   5,H  19)          110.8191         0.321925   
     44. A(O   4,C   5,H  18)          106.3884         0.337007   
     45. A(C  14,C   6,H  20)          108.9092         0.321193   
     46. A(O   7,C   6,C  14)          113.4435         0.371235   
     47. A(C   5,C   6,O   7)          111.1510         0.371986   
     48. A(C   5,C   6,C  14)          111.0307         0.359496   
     49. A(O   7,C   6,H  20)          104.5177         0.331914   
     50. A(C   5,C   6,H  20)          107.3877         0.321811   
     51. A(C   6,O   7,C   8)          115.0534         0.390756   
     52. A(O   9,C   8,C  10)          111.0432         0.376849   
     53. A(O   7,C   8,C  10)          111.0371         0.376018   
     54. A(C  10,C   8,H  21)          109.1716         0.320088   
     55. A(O   9,C   8,H  21)          107.9274         0.338012   
     56. A(O   7,C   8,H  21)          107.6321         0.337293   
     57. A(O   7,C   8,O   9)          109.9129         0.398280   
     58. A(C   8,O   9,H  22)          105.1120         0.354692   
     59. A(C   8,C  10,C  12)          111.6444         0.358540   
     60. A(C   8,C  10,O  11)          111.5165         0.370966   
     61. A(C  12,C  10,H  23)          110.4949         0.322138   
     62. A(O  11,C  10,H  23)          105.8168         0.332886   
     63. A(C   8,C  10,H  23)          109.8240         0.320053   
     64. A(O  11,C  10,C  12)          107.3667         0.373510   
     65. A(C  10,O  11,H  24)          107.3476         0.348787   
     66. A(C  14,C  12,H  25)          109.5255         0.323825   
     67. A(O  13,C  12,H  25)          105.2072         0.333301   
     68. A(C  10,C  12,H  25)          111.0471         0.321823   
     69. A(O  13,C  12,C  14)          109.5278         0.376835   
     70. A(C  10,C  12,C  14)          110.6913         0.363311   
     71. A(C  10,C  12,O  13)          110.6950         0.374381   
     72. A(C  12,O  13,H  26)          105.9544         0.349327   
     73. A(O  15,C  14,H  27)          106.3347         0.334905   
     74. A(C  12,C  14,H  27)          109.7778         0.324038   
     75. A(C  12,C  14,O  15)          109.8111         0.378462   
     76. A(C   6,C  14,H  27)          111.7046         0.321093   
     77. A(C   6,C  14,O  15)          110.6938         0.374834   
     78. A(C   6,C  14,C  12)          108.5030         0.362203   
     79. A(C  14,O  15,H  28)          104.9457         0.350291   
     80. D(H  16,O   2,P   1,O   3)     85.1925         0.013679   
     81. D(H  16,O   2,P   1,O   0)    -35.8137         0.013679   
     82. D(H  16,O   2,P   1,O   4)   -165.1852         0.013679   
     83. D(H  17,O   3,P   1,O   4)     90.2890         0.013437   
     84. D(H  17,O   3,P   1,O   2)   -158.7283         0.013437   
     85. D(H  17,O   3,P   1,O   0)    -36.9358         0.013437   
     86. D(C   5,O   4,P   1,O   3)     61.3745         0.013483   
     87. D(C   5,O   4,P   1,O   2)    -46.7561         0.013483   
     88. D(C   5,O   4,P   1,O   0)   -174.1910         0.013483   
     89. D(H  18,C   5,O   4,P   1)   -139.8336         0.019357   
     90. D(C   6,C   5,O   4,P   1)     99.5697         0.019357   
     91. D(H  19,C   5,O   4,P   1)    -23.6169         0.019357   
     92. D(O   7,C   6,C   5,H  19)    176.7092         0.010625   
     93. D(O   7,C   6,C   5,H  18)    -64.2020         0.010625   
     94. D(H  20,C   6,C   5,H  18)   -177.9560         0.010625   
     95. D(H  20,C   6,C   5,H  19)     62.9552         0.010625   
     96. D(C  14,C   6,C   5,H  19)    -56.0061         0.010625   
     97. D(C  14,C   6,C   5,H  18)     63.0827         0.010625   
     98. D(C  14,C   6,C   5,O   4)   -179.0855         0.010625   
     99. D(O   7,C   6,C   5,O   4)     53.6297         0.010625   
    100. D(H  20,C   6,C   5,O   4)    -60.1242         0.010625   
    101. D(C   8,O   7,C   6,H  20)   -146.8811         0.016360   
    102. D(C   8,O   7,C   6,C  14)    -28.3806         0.016360   
    103. D(C   8,O   7,C   6,C   5)     97.5768         0.016360   
    104. D(H  21,C   8,O   7,C   6)   -177.7196         0.019902   
    105. D(C  10,C   8,O   7,C   6)     62.8453         0.019902   
    106. D(O   9,C   8,O   7,C   6)    -60.4189         0.019902   
    107. D(H  22,O   9,C   8,H  21)     41.8942         0.020434   
    108. D(H  22,O   9,C   8,C  10)    161.5170         0.020434   
    109. D(H  22,O   9,C   8,O   7)    -75.2223         0.020434   
    110. D(O  11,C  10,C   8,O   7)     89.4916         0.009984   
    111. D(H  23,C  10,C   8,O   9)    -30.9234         0.009984   
    112. D(H  23,C  10,C   8,O   7)   -153.5361         0.009984   
    113. D(C  12,C  10,C   8,H  21)   -149.1262         0.009984   
    114. D(C  12,C  10,C   8,O   9)     91.9965         0.009984   
    115. D(C  12,C  10,C   8,O   7)    -30.6163         0.009984   
    116. D(O  11,C  10,C   8,H  21)    -29.0184         0.009984   
    117. D(H  23,C  10,C   8,H  21)     87.9539         0.009984   
    118. D(O  11,C  10,C   8,O   9)   -147.8956         0.009984   
    119. D(H  24,O  11,C  10,H  23)   -169.2698         0.016951   
    120. D(H  24,O  11,C  10,C  12)     72.7037         0.016951   
    121. D(H  24,O  11,C  10,C   8)    -49.8920         0.016951   
    122. D(H  25,C  12,C  10,H  23)   -145.1836         0.010748   
    123. D(H  25,C  12,C  10,O  11)    -30.2368         0.010748   
    124. D(H  25,C  12,C  10,C   8)     92.2797         0.010748   
    125. D(C  14,C  12,C  10,H  23)     92.9359         0.010748   
    126. D(C  14,C  12,C  10,O  11)   -152.1173         0.010748   
    127. D(C  14,C  12,C  10,C   8)    -29.6008         0.010748   
    128. D(O  13,C  12,C  10,H  23)    -28.7080         0.010748   
    129. D(O  13,C  12,C  10,O  11)     86.2388         0.010748   
    130. D(O  13,C  12,C  10,C   8)   -151.2447         0.010748   
    131. D(H  26,O  13,C  12,H  25)     68.3126         0.017422   
    132. D(H  26,O  13,C  12,C  14)   -174.0483         0.017422   
    133. D(H  26,O  13,C  12,C  10)    -51.7222         0.017422   
    134. D(H  27,C  14,C   6,O   7)     87.5321         0.010395   
    135. D(H  27,C  14,C   6,C   5)    -38.4891         0.010395   
    136. D(O  15,C  14,C   6,H  20)    -38.2412         0.010395   
    137. D(O  15,C  14,C   6,O   7)   -154.1771         0.010395   
    138. D(O  15,C  14,C   6,C   5)     79.8016         0.010395   
    139. D(C  12,C  14,C   6,H  20)     82.3200         0.010395   
    140. D(C  12,C  14,C   6,O   7)    -33.6160         0.010395   
    141. D(H  27,C  14,C   6,H  20)   -156.5319         0.010395   
    142. D(C  12,C  14,C   6,C   5)   -159.6372         0.010395   
    143. D(H  27,C  14,C  12,H  25)    176.9818         0.011542   
    144. D(H  27,C  14,C  12,C  10)    -60.2488         0.011542   
    145. D(O  15,C  14,C  12,H  25)     60.4165         0.011542   
    146. D(O  15,C  14,C  12,O  13)    -54.4859         0.011542   
    147. D(O  15,C  14,C  12,C  10)   -176.8142         0.011542   
    148. D(C   6,C  14,C  12,H  25)    -60.6903         0.011542   
    149. D(H  27,C  14,C  12,O  13)     62.0795         0.011542   
    150. D(C   6,C  14,C  12,O  13)   -175.5926         0.011542   
    151. D(C   6,C  14,C  12,C  10)     62.0791         0.011542   
    152. D(H  28,O  15,C  14,H  27)    -74.8188         0.018329   
    153. D(H  28,O  15,C  14,C  12)     43.8906         0.018329   
    154. D(H  28,O  15,C  14,C   6)    163.6700         0.018329   
    -----------------------------------------------------------------

Number of atoms                         .... 29
Number of degrees of freedom            .... 154

         *************************************************************
         *                GEOMETRY OPTIMIZATION CYCLE   1            *
         *************************************************************
---------------------------------
CARTESIAN COORDINATES (ANGSTROEM)
---------------------------------
  O     4.099900   -1.192800   -2.479200
  P     3.458900   -0.768800   -1.203800
  O     3.328200    0.813100   -1.060800
  O     4.338200   -1.160400    0.069600
  O     2.013500   -1.371400   -0.896900
  C     1.295200   -0.910100    0.242100
  C     0.248900    0.138900   -0.166500
  O    -0.613400   -0.364200   -1.212400
  C    -1.858000   -0.882900   -0.767900
  O    -1.640400   -1.968200    0.115600
  C    -2.709800    0.218200   -0.095400
  O    -3.540900    0.902500   -1.053400
  C    -1.831200    1.276000    0.587300
  O    -2.518800    1.863200    1.704700
  C    -0.518800    0.661500    1.062100
  O     0.252300    1.644100    1.759700
  H     4.097900    1.260000   -1.455400
  H     4.768600   -2.024000   -0.068100
  H     0.816500   -1.789400    0.681900
  H     1.981600   -0.503500    0.992700
  H     0.786100    0.973600   -0.631100
  H    -2.391200   -1.264400   -1.645900
  H    -1.376100   -2.711300   -0.455400
  H    -3.397900   -0.234000    0.627900
  H    -2.969000    1.166200   -1.798900
  H    -1.620300    2.111600   -0.092400
  H    -3.387500    2.152500    1.363600
  H    -0.723300   -0.138900    1.783100
  H    -0.389100    2.102800    2.340600

----------------------------
CARTESIAN COORDINATES (A.U.)
----------------------------
  NO LB    ZA    FRAG    MASS        X           Y           Z
   0 O   8.0000    0    15.999    7.747688   -2.254065   -4.685009
   1 P  15.0000    0    30.974    6.536374   -1.452821   -2.274852
   2 O   8.0000    0    15.999    6.289387    1.536536   -2.004621
   3 O   8.0000    0    15.999    8.198010   -2.192838    0.131525
   4 O   8.0000    0    15.999    3.804964   -2.591570   -1.694895
   5 C   6.0000    0    12.011    2.447573   -1.719840    0.457503
   6 C   6.0000    0    12.011    0.470353    0.262483   -0.314639
   7 O   8.0000    0    15.999   -1.159158   -0.688238   -2.291104
   8 C   6.0000    0    12.011   -3.511111   -1.668439   -1.451121
   9 O   8.0000    0    15.999   -3.099907   -3.719359    0.218452
  10 C   6.0000    0    12.011   -5.120780    0.412338   -0.180280
  11 O   8.0000    0    15.999   -6.691331    1.705478   -1.990638
  12 C   6.0000    0    12.011   -3.460466    2.411291    1.109836
  13 O   8.0000    0    15.999   -4.759842    3.520938    3.221416
  14 C   6.0000    0    12.011   -0.980390    1.250054    2.007078
  15 O   8.0000    0    15.999    0.476778    3.106899    3.325351
  16 H   1.0000    0     1.008    7.743909    2.381055   -2.750307
  17 H   1.0000    0     1.008    9.011348   -3.824806   -0.128690
  18 H   1.0000    0     1.008    1.542961   -3.381476    1.288604
  19 H   1.0000    0     1.008    3.744681   -0.951477    1.875931
  20 H   1.0000    0     1.008    1.485514    1.839837   -1.192606
  21 H   1.0000    0     1.008   -4.518713   -2.389370   -3.110300
  22 H   1.0000    0     1.008   -2.600452   -5.123614   -0.860581
  23 H   1.0000    0     1.008   -6.421100   -0.442196    1.186559
  24 H   1.0000    0     1.008   -5.610597    2.203799   -3.399428
  25 H   1.0000    0     1.008   -3.061923    3.990346   -0.174611
  26 H   1.0000    0     1.008   -6.401447    4.067636    2.576831
  27 H   1.0000    0     1.008   -1.366839   -0.262483    3.369571
  28 H   1.0000    0     1.008   -0.735292    3.973716    4.423093

      -----------------------------------------------------------      
     |                   =====================                   |     
     |                           x T B                           |     
     |                   =====================                   |     
     |                         S. Grimme                         |     
     |          Mulliken Center for Theoretical Chemistry        |     
     |                    University of Bonn                     |     
      -----------------------------------------------------------      

   * xtb version 6.5.1 (579679a) compiled by 'ehlert@majestix' on 2022-07-11

   xtb is free software: you can redistribute it and/or modify it under
   the terms of the GNU Lesser General Public License as published by
   the Free Software Foundation, either version 3 of the License, or
   (at your option) any later version.
   
   xtb is distributed in the hope that it will be useful,
   but WITHOUT ANY WARRANTY; without even the implied warranty of
   MERCHANTABILITY or FITNESS FOR A PARTICULAR PURPOSE.  See the
   GNU Lesser General Public License for more details.
   
   Cite this work as:
   * C. Bannwarth, E. Caldeweyher, S. Ehlert, A. Hansen, P. Pracht,
     J. Seibert, S. Spicher, S. Grimme, WIREs Comput. Mol. Sci., 2020, 11,
     e01493. DOI: 10.1002/wcms.1493
   
   for GFN2-xTB:
   * C. Bannwarth, S. Ehlert and S. Grimme., J. Chem. Theory Comput., 2019,
     15, 1652-1671. DOI: 10.1021/acs.jctc.8b01176
   for GFN1-xTB:
   * S. Grimme, C. Bannwarth, P. Shushkov, J. Chem. Theory Comput., 2017,
     13, 1989-2009. DOI: 10.1021/acs.jctc.7b00118
   for GFN0-xTB:
   * P. Pracht, E. Caldeweyher, S. Ehlert, S. Grimme, ChemRxiv, 2019, preprint.
     DOI: 10.26434/chemrxiv.8326202.v1
   for GFN-FF:
   * S. Spicher and S. Grimme, Angew. Chem. Int. Ed., 2020, 59, 15665-15673.
     DOI: 10.1002/anie.202004239
   
   for ALPB and GBSA implicit solvation:
   * S. Ehlert, M. Stahn, S. Spicher, S. Grimme, J. Chem. Theory Comput.,
     2021, 17, 4250-4261. DOI: 10.1021/acs.jctc.1c00471
   
   for DFT-D4:
   * E. Caldeweyher, C. Bannwarth and S. Grimme, J. Chem. Phys., 2017,
     147, 034112. DOI: 10.1063/1.4993215
   * E. Caldeweyher, S. Ehlert, A. Hansen, H. Neugebauer, S. Spicher,
     C. Bannwarth and S. Grimme, J. Chem. Phys., 2019, 150, 154122.
     DOI: 10.1063/1.5090222
   * E. Caldeweyher, J.-M. Mewes, S. Ehlert and S. Grimme, Phys. Chem. Chem. Phys.
     2020, 22, 8499-8512. DOI: 10.1039/D0CP00502A
   
   for sTDA-xTB:
   * S. Grimme and C. Bannwarth, J. Chem. Phys., 2016, 145, 054103.
     DOI: 10.1063/1.4959605
   
   in the mass-spec context:
   * V. Asgeirsson, C. Bauer and S. Grimme, Chem. Sci., 2017, 8, 4879.
     DOI: 10.1039/c7sc00601b
   * J. Koopman and S. Grimme, ACS Omega 2019, 4, 12, 15120-15133.
     DOI: 10.1021/acsomega.9b02011
   
   for metadynamics refer to:
   * S. Grimme, J. Chem. Theory Comput., 2019, 155, 2847-2862
     DOI: 10.1021/acs.jctc.9b00143
   
   for SPH calculations refer to:
   * S. Spicher and S. Grimme, J. Chem. Theory Comput., 2021, 17, 1701-1714
     DOI: 10.1021/acs.jctc.0c01306
   
   with help from (in alphabetical order)
   P. Atkinson, C. Bannwarth, F. Bohle, G. Brandenburg, E. Caldeweyher
   M. Checinski, S. Dohm, S. Ehlert, S. Ehrlich, I. Gerasimov, C. Hölzer
   A. Katbashev, J. Koopman, C. Lavigne, S. Lehtola, F. März, M. Müller,
   F. Musil, H. Neugebauer, J. Pisarek, C. Plett, P. Pracht, F. Pultar,
   J. Seibert, P. Shushkov, S. Spicher, M. Stahn, M. Steiner, T. Strunk,
   J. Stückrath, T. Rose, and J. Unsleber
   
 * started run on 2023/12/07 at 01:24:46.277     

           -------------------------------------------------
          |                Calculation Setup                |
           -------------------------------------------------

          program call               : otool_xtb /tmp/C01172_XTB.xyz --grad -c 0 -u 0 -P 1 --namespace /tmp/C01172 --input /tmp/C01172_XTB.input.tmp --acc 1.000000
          calculation namespace      : /tmp/C01172
          coordinate file            : /tmp/C01172_XTB.xyz
          omp threads                :                     1

   ID    Z sym.   atoms
    1    8 O      1, 3-5, 8, 10, 12, 14, 16
    2   15 P      2
    3    6 C      6, 7, 9, 11, 13, 15
    4    1 H      17-29

           -------------------------------------------------
          |                 G F N 2 - x T B                 |
           -------------------------------------------------

        Reference                      10.1021/acs.jctc.8b01176
      * Hamiltonian:
        H0-scaling (s, p, d)           1.850000    2.230000    2.230000
        zeta-weighting                 0.500000
      * Dispersion:
        s8                             2.700000
        a1                             0.520000
        a2                             5.000000
        s9                             5.000000
      * Repulsion:
        kExp                           1.500000    1.000000
        rExp                           1.000000
      * Coulomb:
        alpha                          2.000000
        third order                    shell-resolved
        anisotropic                    true
        a3                             3.000000
        a5                             4.000000
        cn-shift                       1.200000
        cn-exp                         4.000000
        max-rad                        5.000000


          ...................................................
          :                      SETUP                      :
          :.................................................:
          :  # basis functions                  83          :
          :  # atomic orbitals                  82          :
          :  # shells                           46          :
          :  # electrons                        96          :
          :  max. iterations                   250          :
          :  Hamiltonian                  GFN2-xTB          :
          :  restarted?                      false          :
          :  GBSA solvation                  false          :
          :  PC potential                    false          :
          :  electronic temp.          300.0000000     K    :
          :  accuracy                    1.0000000          :
          :  -> integral cutoff          0.2500000E+02      :
          :  -> integral neglect         0.1000000E-07      :
          :  -> SCF convergence          0.1000000E-05 Eh   :
          :  -> wf. convergence          0.1000000E-03 e    :
          :  Broyden damping             0.4000000          :
          ...................................................

 iter      E             dE          RMSdq      gap      omega  full diag
   1    -59.0119104 -0.590119E+02  0.602E+00    9.74       0.0  T
   2    -59.0818820 -0.699716E-01  0.335E+00    9.43       1.0  T
   3    -59.0949886 -0.131066E-01  0.932E-01    9.15       1.0  T
   4    -59.0970538 -0.206526E-02  0.453E-01    9.15       1.0  T
   5    -59.0974336 -0.379773E-03  0.114E-01    9.14       1.0  T
   6    -59.0975042 -0.706455E-04  0.612E-02    9.15       1.0  T
   7    -59.0975120 -0.776273E-05  0.195E-02    9.15       1.0  T
   8    -59.0975134 -0.139459E-05  0.896E-03    9.15       2.1  T
   9    -59.0975136 -0.229171E-06  0.264E-03    9.14       7.0  T
  10    -59.0975137 -0.355608E-07  0.102E-03    9.14      18.2  T
  11    -59.0975137 -0.187456E-08  0.327E-04    9.14      56.8  T
  12    -59.0975137 -0.457447E-09  0.129E-04    9.14     143.8  T

   *** convergence criteria satisfied after 12 iterations ***

         #    Occupation            Energy/Eh            Energy/eV
      -------------------------------------------------------------
         1        2.0000           -0.7436062             -20.2346
       ...           ...                  ...                  ...
        42        2.0000           -0.4559892             -12.4081
        43        2.0000           -0.4481456             -12.1947
        44        2.0000           -0.4353736             -11.8471
        45        2.0000           -0.4321831             -11.7603
        46        2.0000           -0.4301369             -11.7046
        47        2.0000           -0.4241706             -11.5423
        48        2.0000           -0.4229381             -11.5087 (HOMO)
        49                         -0.0869250              -2.3653 (LUMO)
        50                         -0.0498697              -1.3570
        51                         -0.0448381              -1.2201
        52                         -0.0315479              -0.8585
        53                         -0.0267912              -0.7290
       ...                                ...                  ...
        82                          1.2352630              33.6132
      -------------------------------------------------------------
                  HL-Gap            0.3360131 Eh            9.1434 eV
             Fermi-level           -0.2549315 Eh           -6.9370 eV

 SCC (total)                   0 d,  0 h,  0 min,  0.038 sec
 SCC setup                      ...        0 min,  0.000 sec (  0.515%)
 Dispersion                     ...        0 min,  0.000 sec (  0.598%)
 classical contributions        ...        0 min,  0.000 sec (  0.133%)
 integral evaluation            ...        0 min,  0.006 sec ( 15.031%)
 iterations                     ...        0 min,  0.015 sec ( 40.670%)
 molecular gradient             ...        0 min,  0.016 sec ( 42.477%)
 printout                       ...        0 min,  0.000 sec (  0.531%)

         :::::::::::::::::::::::::::::::::::::::::::::::::::::
         ::                     SUMMARY                     ::
         :::::::::::::::::::::::::::::::::::::::::::::::::::::
         :: total energy             -58.737439788029 Eh    ::
         :: gradient norm              0.081486731879 Eh/a0 ::
         :: HOMO-LUMO gap              9.143382280866 eV    ::
         ::.................................................::
         :: SCC energy               -59.097513668425 Eh    ::
         :: -> isotropic ES            0.225979175405 Eh    ::
         :: -> anisotropic ES         -0.007692999873 Eh    ::
         :: -> anisotropic XC         -0.006906796395 Eh    ::
         :: -> dispersion             -0.026474109332 Eh    ::
         :: repulsion energy           0.359877361748 Eh    ::
         :: add. restraining           0.000000000000 Eh    ::
         :: total charge               0.000000000000 e     ::
         :::::::::::::::::::::::::::::::::::::::::::::::::::::


Property printout bound to 'properties.out'

           -------------------------------------------------
          | TOTAL ENERGY              -58.737439788029 Eh   |
          | GRADIENT NORM               0.081486731879 Eh/α |
          | HOMO-LUMO GAP               9.143382280866 eV   |
           -------------------------------------------------

------------------------------------------------------------------------
 * finished run on 2023/12/07 at 01:24:46.327     
------------------------------------------------------------------------
 total:
 * wall-time:     0 d,  0 h,  0 min,  0.050 sec
 *  cpu-time:     0 d,  0 h,  0 min,  0.048 sec
 * ratio c/w:     0.966 speedup
 SCF:
 * wall-time:     0 d,  0 h,  0 min,  0.038 sec
 *  cpu-time:     0 d,  0 h,  0 min,  0.036 sec
 * ratio c/w:     0.952 speedup


-------------------------   --------------------
FINAL SINGLE POINT ENERGY       -58.737439788030
-------------------------   --------------------

------------------------------------------------------------------------------
                         ORCA GEOMETRY RELAXATION STEP
------------------------------------------------------------------------------

Reading the OPT-File                    .... done
Getting information on internals        .... done
Copying old internal coords+grads       .... done
Making the new internal coordinates     .... (new redundants).... done
Validating the new internal coordinates .... (new redundants).... done
Calculating the B-matrix                .... done
Calculating the G,G- and P matrices     .... done
Transforming gradient to internals      .... done
Projecting the internal gradient        .... done
Number of atoms                         ....  29
Number of internal coordinates          .... 154
Current Energy                          ....   -58.737439788 Eh
Current gradient norm                   ....     0.081486732 Eh/bohr
Maximum allowed component of the step   ....  0.300
Current trust radius                    ....  0.300
Evaluating the initial hessian          ....  (Almloef) done
Projecting the Hessian                  .... done
Forming the augmented Hessian           .... done
Diagonalizing the augmented Hessian     .... done
Last element of RFO vector              ....  0.971499917
Lowest eigenvalues of augmented Hessian:
 -0.010698723  0.010627606  0.010919789  0.013451117  0.013547273
Length of the computed step             ....  0.243993735
The final length of the internal step   ....  0.243993735
Converting the step to cartesian space:
 Initial RMS(Int)=    0.0196615755
Transforming coordinates:
 Iter   0:  RMS(Cart)=    0.0725344073 RMS(Int)=    0.0196530214
 Iter   1:  RMS(Cart)=    0.0017618794 RMS(Int)=    0.0008923352
 Iter   2:  RMS(Cart)=    0.0000901900 RMS(Int)=    0.0000423531
 Iter   3:  RMS(Cart)=    0.0000061852 RMS(Int)=    0.0000042153
 Iter   4:  RMS(Cart)=    0.0000004435 RMS(Int)=    0.0000002678
 Iter   5:  RMS(Cart)=    0.0000000380 RMS(Int)=    0.0000000289
done
Storing new coordinates                 .... done

                                .--------------------.
          ----------------------|Geometry convergence|-------------------------
          Item                value                   Tolerance       Converged
          ---------------------------------------------------------------------
          RMS gradient        0.0053421981            0.0001000000      NO
          MAX gradient        0.0328952588            0.0003000000      NO
          RMS step            0.0196615755            0.0020000000      NO
          MAX step            0.0532391459            0.0040000000      NO
          ........................................................
          Max(Bonds)      0.0193      Max(Angles)    2.15
          Max(Dihed)        3.05      Max(Improp)    0.00
          ---------------------------------------------------------------------

The optimization has not yet converged - more geometry cycles are needed


    ---------------------------------------------------------------------------
                         Redundant Internal Coordinates
                            (Angstroem and degrees)

        Definition                    Value    dE/dq     Step     New-Value
    ----------------------------------------------------------------------------
     1. B(P   1,O   0)                1.4891  0.032895 -0.0132    1.4759   
     2. B(O   2,P   1)                1.5937  0.003332 -0.0020    1.5918   
     3. B(O   3,P   1)                1.5963 -0.007270  0.0043    1.6006   
     4. B(O   4,P   1)                1.5958  0.009723 -0.0058    1.5900   
     5. B(C   5,O   4)                1.4234  0.003911 -0.0041    1.4193   
     6. B(C   6,C   5)                1.5369  0.005662 -0.0080    1.5289   
     7. B(O   7,C   6)                1.4459  0.013599 -0.0184    1.4275   
     8. B(C   8,O   7)                1.4197  0.011331 -0.0128    1.4070   
     9. B(O   9,C   8)                1.4163  0.006939 -0.0071    1.4092   
    10. B(C  10,C   8)                1.5460  0.007567 -0.0120    1.5340   
    11. B(O  11,C  10)                1.4411  0.017308 -0.0193    1.4218   
    12. B(C  12,C  10)                1.5352  0.002453 -0.0010    1.5343   
    13. B(O  13,C  12)                1.4374  0.011509 -0.0127    1.4248   
    14. B(C  14,C  12)                1.5249  0.003402 -0.0009    1.5240   
    15. B(C  14,C   6)                1.5401  0.007634 -0.0115    1.5287   
    16. B(O  15,C  14)                1.4306  0.013529 -0.0145    1.4161   
    17. B(H  16,O   2)                0.9736  0.015312 -0.0160    0.9576   
    18. B(H  17,O   3)                0.9747  0.016077 -0.0169    0.9578   
    19. B(H  18,C   5)                1.0935 -0.000718  0.0010    1.0945   
    20. B(H  19,C   5)                1.0954  0.001650 -0.0024    1.0930   
    21. B(H  20,C   6)                1.0960  0.000299 -0.0004    1.0955   
    22. B(H  21,C   8)                1.0958 -0.000795  0.0012    1.0969   
    23. B(H  22,O   9)                0.9737  0.008183 -0.0086    0.9651   
    24. B(H  23,C  10)                1.0960  0.002504 -0.0036    1.0923   
    25. B(H  24,O  11)                0.9759  0.009346 -0.0099    0.9660   
    26. B(H  25,C  12)                1.0976 -0.001936  0.0028    1.1004   
    27. B(H  26,O  13)                0.9771  0.011069 -0.0117    0.9653   
    28. B(H  27,C  14)                1.0965 -0.001802  0.0026    1.0991   
    29. B(H  28,O  15)                0.9794  0.010486 -0.0112    0.9682   
    30. A(O   2,P   1,O   3)          102.54  0.002492   -0.18    102.36   
    31. A(O   0,P   1,O   4)          116.56  0.005021   -0.72    115.84   
    32. A(O   3,P   1,O   4)          104.65 -0.003238    0.23    104.88   
    33. A(O   2,P   1,O   4)          106.46  0.007371   -1.21    105.25   
    34. A(O   0,P   1,O   2)          113.25 -0.007877    1.04    114.29   
    35. A(O   0,P   1,O   3)          112.10 -0.003432    0.78    112.89   
    36. A(P   1,O   2,H  16)          110.76  0.004672   -0.63    110.13   
    37. A(P   1,O   3,H  17)          110.36  0.002454   -0.33    110.03   
    38. A(P   1,O   4,C   5)          119.25  0.002170   -0.26    118.99   
    39. A(C   6,C   5,H  18)          110.96  0.001108   -0.16    110.80   
    40. A(H  18,C   5,H  19)          107.29 -0.003739    1.12    108.41   
    41. A(O   4,C   5,C   6)          110.61 -0.001628    0.07    110.68   
    42. A(O   4,C   5,H  19)          110.63 -0.001525    0.14    110.77   
    43. A(C   6,C   5,H  19)          110.82  0.005423   -1.24    109.58   
    44. A(O   4,C   5,H  18)          106.39  0.000064    0.16    106.55   
    45. A(C  14,C   6,H  20)          108.91 -0.000560    0.24    109.15   
    46. A(O   7,C   6,C  14)          113.44 -0.000498   -0.53    112.91   
    47. A(C   5,C   6,O   7)          111.15  0.000187   -0.02    111.13   
    48. A(C   5,C   6,C  14)          111.03  0.002194   -0.42    110.61   
    49. A(O   7,C   6,H  20)          104.52 -0.000353    0.30    104.82   
    50. A(C   5,C   6,H  20)          107.39 -0.001230    0.54    107.93   
    51. A(C   6,O   7,C   8)          115.05  0.000005   -0.05    115.00   
    52. A(O   9,C   8,C  10)          111.04  0.008153   -1.30    109.74   
    53. A(O   7,C   8,C  10)          111.04 -0.004338    0.07    111.10   
    54. A(C  10,C   8,H  21)          109.17  0.001305   -0.30    108.88   
    55. A(O   9,C   8,H  21)          107.93 -0.005654    1.51    109.44   
    56. A(O   7,C   8,H  21)          107.63  0.003962   -1.32    106.31   
    57. A(O   7,C   8,O   9)          109.91 -0.003568    1.37    111.28   
    58. A(C   8,O   9,H  22)          105.11 -0.010121    1.59    106.70   
    59. A(C   8,C  10,C  12)          111.64  0.004708   -0.81    110.83   
    60. A(C   8,C  10,O  11)          111.52  0.001799   -0.46    111.06   
    61. A(C  12,C  10,H  23)          110.49 -0.001091   -0.25    110.25   
    62. A(O  11,C  10,H  23)          105.82  0.001437   -0.15    105.67   
    63. A(C   8,C  10,H  23)          109.82 -0.000683   -0.41    109.42   
    64. A(O  11,C  10,C  12)          107.37 -0.006471    2.15    109.52   
    65. A(C  10,O  11,H  24)          107.35 -0.001767    0.28    107.63   
    66. A(C  14,C  12,H  25)          109.53  0.000819   -0.32    109.20   
    67. A(O  13,C  12,H  25)          105.21 -0.003699    1.80    107.01   
    68. A(C  10,C  12,H  25)          111.05  0.002425   -0.58    110.47   
    69. A(O  13,C  12,C  14)          109.53  0.002578   -0.89    108.63   
    70. A(C  10,C  12,C  14)          110.69  0.000444   -0.42    110.27   
    71. A(C  10,C  12,O  13)          110.70 -0.002694    0.50    111.19   
    72. A(C  12,O  13,H  26)          105.95 -0.003465    0.55    106.51   
    73. A(O  15,C  14,H  27)          106.33 -0.003557    1.57    107.90   
    74. A(C  12,C  14,H  27)          109.78  0.001251   -0.32    109.45   
    75. A(C  12,C  14,O  15)          109.81 -0.003296    0.75    110.56   
    76. A(C   6,C  14,H  27)          111.70  0.000134   -0.42    111.29   
    77. A(C   6,C  14,O  15)          110.69  0.005338   -1.57    109.12   
    78. A(C   6,C  14,C  12)          108.50  0.000018    0.04    108.54   
    79. A(C  14,O  15,H  28)          104.95 -0.002316    0.37    105.31   
    80. D(H  16,O   2,P   1,O   3)     85.19 -0.002542    1.36     86.55   
    81. D(H  16,O   2,P   1,O   0)    -35.81  0.004091   -0.01    -35.83   
    82. D(H  16,O   2,P   1,O   4)   -165.19 -0.002600    1.13   -164.06   
    83. D(H  17,O   3,P   1,O   4)     90.29 -0.002589    1.74     92.03   
    84. D(H  17,O   3,P   1,O   2)   -158.73  0.005242    0.44   -158.29   
    85. D(H  17,O   3,P   1,O   0)    -36.94 -0.004402    1.97    -34.96   
    86. D(C   5,O   4,P   1,O   3)     61.37  0.003300   -2.01     59.37   
    87. D(C   5,O   4,P   1,O   2)    -46.76 -0.000915   -1.45    -48.21   
    88. D(C   5,O   4,P   1,O   0)   -174.19 -0.000387   -1.28   -175.47   
    89. D(H  18,C   5,O   4,P   1)   -139.83  0.003210   -3.05   -142.88   
    90. D(C   6,C   5,O   4,P   1)     99.57  0.002751   -3.00     96.57   
    91. D(H  19,C   5,O   4,P   1)    -23.62 -0.001969   -1.56    -25.18   
    92. D(O   7,C   6,C   5,H  19)    176.71 -0.000275   -0.04    176.67   
    93. D(O   7,C   6,C   5,H  18)    -64.20 -0.000713    0.45    -63.75   
    94. D(H  20,C   6,C   5,H  18)   -177.96  0.000300   -0.20   -178.16   
    95. D(H  20,C   6,C   5,H  19)     62.96  0.000738   -0.69     62.27   
    96. D(C  14,C   6,C   5,H  19)    -56.01  0.000919   -1.08    -57.08   
    97. D(C  14,C   6,C   5,H  18)     63.08  0.000481   -0.59     62.50   
    98. D(C  14,C   6,C   5,O   4)   -179.09  0.000227   -0.44   -179.53   
    99. D(O   7,C   6,C   5,O   4)     53.63 -0.000967    0.60     54.23   
   100. D(H  20,C   6,C   5,O   4)    -60.12  0.000046   -0.05    -60.18   
   101. D(C   8,O   7,C   6,H  20)   -146.88  0.000159   -0.86   -147.74   
   102. D(C   8,O   7,C   6,C  14)    -28.38 -0.001008   -0.66    -29.04   
   103. D(C   8,O   7,C   6,C   5)     97.58  0.001707   -1.65     95.92   
   104. D(H  21,C   8,O   7,C   6)   -177.72 -0.001315    0.77   -176.95   
   105. D(C  10,C   8,O   7,C   6)     62.85 -0.002842    1.92     64.76   
   106. D(O   9,C   8,O   7,C   6)    -60.42 -0.007750    2.57    -57.85   
   107. D(H  22,O   9,C   8,H  21)     41.89 -0.002716    3.03     44.93   
   108. D(H  22,O   9,C   8,C  10)    161.52  0.000156    2.85    164.36   
   109. D(H  22,O   9,C   8,O   7)    -75.22 -0.002262    2.99    -72.23   
   110. D(O  11,C  10,C   8,O   7)     89.49 -0.002009    0.81     90.30   
   111. D(H  23,C  10,C   8,O   9)    -30.92 -0.001466    0.98    -29.94   
   112. D(H  23,C  10,C   8,O   7)   -153.54  0.000426    0.10   -153.44   
   113. D(C  12,C  10,C   8,H  21)   -149.13 -0.001286    0.70   -148.42   
   114. D(C  12,C  10,C   8,O   9)     92.00 -0.000109   -0.18     91.82   
   115. D(C  12,C  10,C   8,O   7)    -30.62  0.001783   -1.06    -31.68   
   116. D(O  11,C  10,C   8,H  21)    -29.02 -0.005077    2.58    -26.44   
   117. D(H  23,C  10,C   8,H  21)     87.95 -0.002643    1.86     89.82   
   118. D(O  11,C  10,C   8,O   9)   -147.90 -0.003900    1.70   -146.20   
   119. D(H  24,O  11,C  10,H  23)   -169.27 -0.001535    0.42   -168.85   
   120. D(H  24,O  11,C  10,C  12)     72.70  0.002153   -0.27     72.44   
   121. D(H  24,O  11,C  10,C   8)    -49.89 -0.000496   -0.41    -50.30   
   122. D(H  25,C  12,C  10,H  23)   -145.18  0.003154   -1.90   -147.08   
   123. D(H  25,C  12,C  10,O  11)    -30.24  0.000685   -1.00    -31.24   
   124. D(H  25,C  12,C  10,C   8)     92.28  0.001524   -0.64     91.64   
   125. D(C  14,C  12,C  10,H  23)     92.94  0.000149   -0.80     92.14   
   126. D(C  14,C  12,C  10,O  11)   -152.12 -0.002321    0.10   -152.02   
   127. D(C  14,C  12,C  10,C   8)    -29.60 -0.001482    0.46    -29.14   
   128. D(O  13,C  12,C  10,H  23)    -28.71 -0.001590    0.28    -28.43   
   129. D(O  13,C  12,C  10,O  11)     86.24 -0.004060    1.17     87.41   
   130. D(O  13,C  12,C  10,C   8)   -151.24 -0.003220    1.54   -149.70   
   131. D(H  26,O  13,C  12,H  25)     68.31 -0.000496    0.52     68.83   
   132. D(H  26,O  13,C  12,C  14)   -174.05 -0.000276    0.68   -173.37   
   133. D(H  26,O  13,C  12,C  10)    -51.72  0.000238   -0.12    -51.84   
   134. D(H  27,C  14,C   6,O   7)     87.53  0.002259   -0.95     86.58   
   135. D(H  27,C  14,C   6,C   5)    -38.49  0.000611   -0.17    -38.66   
   136. D(O  15,C  14,C   6,H  20)    -38.24  0.000287   -0.07    -38.31   
   137. D(O  15,C  14,C   6,O   7)   -154.18  0.001383   -0.29   -154.47   
   138. D(O  15,C  14,C   6,C   5)     79.80 -0.000264    0.49     80.30   
   139. D(C  12,C  14,C   6,H  20)     82.32 -0.000495   -0.09     82.23   
   140. D(C  12,C  14,C   6,O   7)    -33.62  0.000600   -0.31    -33.93   
   141. D(H  27,C  14,C   6,H  20)   -156.53  0.001163   -0.73   -157.26   
   142. D(C  12,C  14,C   6,C   5)   -159.64 -0.001047    0.47   -159.16   
   143. D(H  27,C  14,C  12,H  25)    176.98 -0.004267    2.42    179.41   
   144. D(H  27,C  14,C  12,C  10)    -60.25 -0.000364    1.19    -59.06   
   145. D(O  15,C  14,C  12,H  25)     60.42  0.001233    0.28     60.70   
   146. D(O  15,C  14,C  12,O  13)    -54.49  0.003776   -1.20    -55.69   
   147. D(O  15,C  14,C  12,C  10)   -176.81  0.005136   -0.95   -177.77   
   148. D(C   6,C  14,C  12,H  25)    -60.69 -0.003310    1.73    -58.96   
   149. D(H  27,C  14,C  12,O  13)     62.08 -0.001724    0.94     63.02   
   150. D(C   6,C  14,C  12,O  13)   -175.59 -0.000767    0.25   -175.35   
   151. D(C   6,C  14,C  12,C  10)     62.08  0.000593    0.50     62.58   
   152. D(H  28,O  15,C  14,H  27)    -74.82  0.001168   -0.57    -75.39   
   153. D(H  28,O  15,C  14,C  12)     43.89 -0.001129    0.33     44.22   
   154. D(H  28,O  15,C  14,C   6)    163.67  0.000149   -0.13    163.54   
    ----------------------------------------------------------------------------

         *************************************************************
         *                GEOMETRY OPTIMIZATION CYCLE   2            *
         *************************************************************
---------------------------------
CARTESIAN COORDINATES (ANGSTROEM)
---------------------------------
  O     4.066573   -1.222669   -2.445268
  P     3.421335   -0.770576   -1.197302
  O     3.215229    0.804807   -1.100393
  O     4.298190   -1.082016    0.104996
  O     1.993756   -1.398761   -0.888177
  C     1.270314   -0.939072    0.243087
  C     0.259421    0.134059   -0.161981
  O    -0.596134   -0.332558   -1.205137
  C    -1.830422   -0.852237   -0.773869
  O    -1.648813   -1.921164    0.126251
  C    -2.689675    0.236762   -0.118871
  O    -3.514790    0.883344   -1.079401
  C    -1.808519    1.277858    0.583766
  O    -2.476171    1.842644    1.708569
  C    -0.510583    0.636250    1.059372
  O     0.285064    1.579729    1.753756
  H     3.952056    1.259364   -1.509497
  H     4.766809   -1.910005   -0.005363
  H     0.762388   -1.812351    0.664290
  H     1.948733   -0.536288    0.999480
  H     0.813170    0.968597   -0.605957
  H    -2.342801   -1.215424   -1.673219
  H    -1.330280   -2.669819   -0.392907
  H    -3.374973   -0.223069    0.596716
  H    -2.951590    1.147398   -1.818520
  H    -1.572871    2.106873   -0.100443
  H    -3.337166    2.144593    1.393294
  H    -0.740983   -0.185818    1.751615
  H    -0.327168    2.049449    2.338512

----------------------------
CARTESIAN COORDINATES (A.U.)
----------------------------
  NO LB    ZA    FRAG    MASS        X           Y           Z
   0 O   8.0000    0    15.999    7.684709   -2.310509   -4.620886
   1 P  15.0000    0    30.974    6.465387   -1.456177   -2.262572
   2 O   8.0000    0    15.999    6.075903    1.520865   -2.079441
   3 O   8.0000    0    15.999    8.122402   -2.044715    0.198414
   4 O   8.0000    0    15.999    3.767652   -2.643275   -1.678411
   5 C   6.0000    0    12.011    2.400546   -1.774589    0.459368
   6 C   6.0000    0    12.011    0.490235    0.253335   -0.306099
   7 O   8.0000    0    15.999   -1.126529   -0.628444   -2.277379
   8 C   6.0000    0    12.011   -3.458995   -1.610495   -1.462400
   9 O   8.0000    0    15.999   -3.115805   -3.630474    0.238580
  10 C   6.0000    0    12.011   -5.082750    0.447416   -0.224634
  11 O   8.0000    0    15.999   -6.641990    1.669277   -2.039773
  12 C   6.0000    0    12.011   -3.417605    2.414801    1.103157
  13 O   8.0000    0    15.999   -4.679286    3.482093    3.228727
  14 C   6.0000    0    12.011   -0.964862    1.202338    2.001923
  15 O   8.0000    0    15.999    0.538693    2.985255    3.314118
  16 H   1.0000    0     1.008    7.468304    2.379854   -2.852536
  17 H   1.0000    0     1.008    9.007963   -3.609386   -0.010134
  18 H   1.0000    0     1.008    1.440705   -3.424847    1.255326
  19 H   1.0000    0     1.008    3.682571   -1.013438    1.888743
  20 H   1.0000    0     1.008    1.536668    1.830384   -1.145092
  21 H   1.0000    0     1.008   -4.427252   -2.296819   -3.161925
  22 H   1.0000    0     1.008   -2.513865   -5.045227   -0.742487
  23 H   1.0000    0     1.008   -6.377775   -0.421540    1.127629
  24 H   1.0000    0     1.008   -5.577697    2.168268   -3.436504
  25 H   1.0000    0     1.008   -2.972295    3.981413   -0.189811
  26 H   1.0000    0     1.008   -6.306330    4.052693    2.632944
  27 H   1.0000    0     1.008   -1.400255   -0.351146    3.310073
  28 H   1.0000    0     1.008   -0.618258    3.872898    4.419147

      -----------------------------------------------------------      
     |                   =====================                   |     
     |                           x T B                           |     
     |                   =====================                   |     
     |                         S. Grimme                         |     
     |          Mulliken Center for Theoretical Chemistry        |     
     |                    University of Bonn                     |     
      -----------------------------------------------------------      

   * xtb version 6.5.1 (579679a) compiled by 'ehlert@majestix' on 2022-07-11

   xtb is free software: you can redistribute it and/or modify it under
   the terms of the GNU Lesser General Public License as published by
   the Free Software Foundation, either version 3 of the License, or
   (at your option) any later version.
   
   xtb is distributed in the hope that it will be useful,
   but WITHOUT ANY WARRANTY; without even the implied warranty of
   MERCHANTABILITY or FITNESS FOR A PARTICULAR PURPOSE.  See the
   GNU Lesser General Public License for more details.
   
   Cite this work as:
   * C. Bannwarth, E. Caldeweyher, S. Ehlert, A. Hansen, P. Pracht,
     J. Seibert, S. Spicher, S. Grimme, WIREs Comput. Mol. Sci., 2020, 11,
     e01493. DOI: 10.1002/wcms.1493
   
   for GFN2-xTB:
   * C. Bannwarth, S. Ehlert and S. Grimme., J. Chem. Theory Comput., 2019,
     15, 1652-1671. DOI: 10.1021/acs.jctc.8b01176
   for GFN1-xTB:
   * S. Grimme, C. Bannwarth, P. Shushkov, J. Chem. Theory Comput., 2017,
     13, 1989-2009. DOI: 10.1021/acs.jctc.7b00118
   for GFN0-xTB:
   * P. Pracht, E. Caldeweyher, S. Ehlert, S. Grimme, ChemRxiv, 2019, preprint.
     DOI: 10.26434/chemrxiv.8326202.v1
   for GFN-FF:
   * S. Spicher and S. Grimme, Angew. Chem. Int. Ed., 2020, 59, 15665-15673.
     DOI: 10.1002/anie.202004239
   
   for ALPB and GBSA implicit solvation:
   * S. Ehlert, M. Stahn, S. Spicher, S. Grimme, J. Chem. Theory Comput.,
     2021, 17, 4250-4261. DOI: 10.1021/acs.jctc.1c00471
   
   for DFT-D4:
   * E. Caldeweyher, C. Bannwarth and S. Grimme, J. Chem. Phys., 2017,
     147, 034112. DOI: 10.1063/1.4993215
   * E. Caldeweyher, S. Ehlert, A. Hansen, H. Neugebauer, S. Spicher,
     C. Bannwarth and S. Grimme, J. Chem. Phys., 2019, 150, 154122.
     DOI: 10.1063/1.5090222
   * E. Caldeweyher, J.-M. Mewes, S. Ehlert and S. Grimme, Phys. Chem. Chem. Phys.
     2020, 22, 8499-8512. DOI: 10.1039/D0CP00502A
   
   for sTDA-xTB:
   * S. Grimme and C. Bannwarth, J. Chem. Phys., 2016, 145, 054103.
     DOI: 10.1063/1.4959605
   
   in the mass-spec context:
   * V. Asgeirsson, C. Bauer and S. Grimme, Chem. Sci., 2017, 8, 4879.
     DOI: 10.1039/c7sc00601b
   * J. Koopman and S. Grimme, ACS Omega 2019, 4, 12, 15120-15133.
     DOI: 10.1021/acsomega.9b02011
   
   for metadynamics refer to:
   * S. Grimme, J. Chem. Theory Comput., 2019, 155, 2847-2862
     DOI: 10.1021/acs.jctc.9b00143
   
   for SPH calculations refer to:
   * S. Spicher and S. Grimme, J. Chem. Theory Comput., 2021, 17, 1701-1714
     DOI: 10.1021/acs.jctc.0c01306
   
   with help from (in alphabetical order)
   P. Atkinson, C. Bannwarth, F. Bohle, G. Brandenburg, E. Caldeweyher
   M. Checinski, S. Dohm, S. Ehlert, S. Ehrlich, I. Gerasimov, C. Hölzer
   A. Katbashev, J. Koopman, C. Lavigne, S. Lehtola, F. März, M. Müller,
   F. Musil, H. Neugebauer, J. Pisarek, C. Plett, P. Pracht, F. Pultar,
   J. Seibert, P. Shushkov, S. Spicher, M. Stahn, M. Steiner, T. Strunk,
   J. Stückrath, T. Rose, and J. Unsleber
   
 * started run on 2023/12/07 at 01:24:46.431     

           -------------------------------------------------
          |                Calculation Setup                |
           -------------------------------------------------

          program call               : otool_xtb /tmp/C01172_XTB.xyz --grad -c 0 -u 0 -P 1 --namespace /tmp/C01172 --input /tmp/C01172_XTB.input.tmp --acc 1.000000
          calculation namespace      : /tmp/C01172
          coordinate file            : /tmp/C01172_XTB.xyz
          omp threads                :                     1

   ID    Z sym.   atoms
    1    8 O      1, 3-5, 8, 10, 12, 14, 16
    2   15 P      2
    3    6 C      6, 7, 9, 11, 13, 15
    4    1 H      17-29

           -------------------------------------------------
          |                 G F N 2 - x T B                 |
           -------------------------------------------------

        Reference                      10.1021/acs.jctc.8b01176
      * Hamiltonian:
        H0-scaling (s, p, d)           1.850000    2.230000    2.230000
        zeta-weighting                 0.500000
      * Dispersion:
        s8                             2.700000
        a1                             0.520000
        a2                             5.000000
        s9                             5.000000
      * Repulsion:
        kExp                           1.500000    1.000000
        rExp                           1.000000
      * Coulomb:
        alpha                          2.000000
        third order                    shell-resolved
        anisotropic                    true
        a3                             3.000000
        a5                             4.000000
        cn-shift                       1.200000
        cn-exp                         4.000000
        max-rad                        5.000000

q/qsh data taken from xtbrestart
CAMM data taken from xtbrestart

          ...................................................
          :                      SETUP                      :
          :.................................................:
          :  # basis functions                  83          :
          :  # atomic orbitals                  82          :
          :  # shells                           46          :
          :  # electrons                        96          :
          :  max. iterations                   250          :
          :  Hamiltonian                  GFN2-xTB          :
          :  restarted?                       true          :
          :  GBSA solvation                  false          :
          :  PC potential                    false          :
          :  electronic temp.          300.0000000     K    :
          :  accuracy                    1.0000000          :
          :  -> integral cutoff          0.2500000E+02      :
          :  -> integral neglect         0.1000000E-07      :
          :  -> SCF convergence          0.1000000E-05 Eh   :
          :  -> wf. convergence          0.1000000E-03 e    :
          :  Broyden damping             0.4000000          :
          ...................................................

 iter      E             dE          RMSdq      gap      omega  full diag
   1    -59.1262163 -0.591262E+02  0.230E-01    9.35       0.0  T
   2    -59.1262626 -0.463433E-04  0.137E-01    9.36       1.0  T
   3    -59.1262652 -0.260021E-05  0.358E-02    9.36       1.0  T
   4    -59.1262688 -0.355130E-05  0.707E-03    9.36       2.6  T
   5    -59.1262689 -0.127025E-06  0.358E-03    9.36       5.2  T
   6    -59.1262689 -0.240163E-07  0.125E-03    9.36      14.9  T
   7    -59.1262689 -0.389915E-08  0.417E-04    9.36      44.5  T
   8    -59.1262689 -0.435747E-09  0.125E-04    9.36     148.3  T

   *** convergence criteria satisfied after 8 iterations ***

         #    Occupation            Energy/Eh            Energy/eV
      -------------------------------------------------------------
         1        2.0000           -0.7446727             -20.2636
       ...           ...                  ...                  ...
        42        2.0000           -0.4564052             -12.4194
        43        2.0000           -0.4471471             -12.1675
        44        2.0000           -0.4359831             -11.8637
        45        2.0000           -0.4343957             -11.8205
        46        2.0000           -0.4330813             -11.7847
        47        2.0000           -0.4227716             -11.5042
        48        2.0000           -0.4204736             -11.4417 (HOMO)
        49                         -0.0765436              -2.0829 (LUMO)
        50                         -0.0328868              -0.8949
        51                         -0.0293196              -0.7978
        52                         -0.0231649              -0.6303
        53                         -0.0137140              -0.3732
       ...                                ...                  ...
        82                          1.2567765              34.1986
      -------------------------------------------------------------
                  HL-Gap            0.3439301 Eh            9.3588 eV
             Fermi-level           -0.2485086 Eh           -6.7623 eV

 SCC (total)                   0 d,  0 h,  0 min,  0.032 sec
 SCC setup                      ...        0 min,  0.000 sec (  0.583%)
 Dispersion                     ...        0 min,  0.000 sec (  0.747%)
 classical contributions        ...        0 min,  0.000 sec (  0.151%)
 integral evaluation            ...        0 min,  0.005 sec ( 16.844%)
 iterations                     ...        0 min,  0.010 sec ( 31.701%)
 molecular gradient             ...        0 min,  0.016 sec ( 49.422%)
 printout                       ...        0 min,  0.000 sec (  0.497%)

         :::::::::::::::::::::::::::::::::::::::::::::::::::::
         ::                     SUMMARY                     ::
         :::::::::::::::::::::::::::::::::::::::::::::::::::::
         :: total energy             -58.744931988099 Eh    ::
         :: gradient norm              0.047237880153 Eh/a0 ::
         :: HOMO-LUMO gap              9.358813737233 eV    ::
         ::.................................................::
         :: SCC energy               -59.126268927866 Eh    ::
         :: -> isotropic ES            0.223159519454 Eh    ::
         :: -> anisotropic ES         -0.008401929934 Eh    ::
         :: -> anisotropic XC         -0.007996994177 Eh    ::
         :: -> dispersion             -0.026841391178 Eh    ::
         :: repulsion energy           0.381133916579 Eh    ::
         :: add. restraining           0.000000000000 Eh    ::
         :: total charge               0.000000000000 e     ::
         :::::::::::::::::::::::::::::::::::::::::::::::::::::


Property printout bound to 'properties.out'

           -------------------------------------------------
          | TOTAL ENERGY              -58.744931988099 Eh   |
          | GRADIENT NORM               0.047237880153 Eh/α |
          | HOMO-LUMO GAP               9.358813737233 eV   |
           -------------------------------------------------

------------------------------------------------------------------------
 * finished run on 2023/12/07 at 01:24:46.476     
------------------------------------------------------------------------
 total:
 * wall-time:     0 d,  0 h,  0 min,  0.044 sec
 *  cpu-time:     0 d,  0 h,  0 min,  0.044 sec
 * ratio c/w:     0.992 speedup
 SCF:
 * wall-time:     0 d,  0 h,  0 min,  0.033 sec
 *  cpu-time:     0 d,  0 h,  0 min,  0.032 sec
 * ratio c/w:     0.983 speedup


-------------------------   --------------------
FINAL SINGLE POINT ENERGY       -58.744931988100
-------------------------   --------------------

------------------------------------------------------------------------------
                         ORCA GEOMETRY RELAXATION STEP
------------------------------------------------------------------------------

Reading the OPT-File                    .... done
Getting information on internals        .... done
Copying old internal coords+grads       .... done
Making the new internal coordinates     .... (new redundants).... done
Validating the new internal coordinates .... (new redundants).... done
Calculating the B-matrix                .... done
Calculating the G,G- and P matrices     .... done
Transforming gradient to internals      .... done
Projecting the internal gradient        .... done
Number of atoms                         ....  29
Number of internal coordinates          .... 154
Current Energy                          ....   -58.744931988 Eh
Current gradient norm                   ....     0.047237880 Eh/bohr
Maximum allowed component of the step   ....  0.300
Current trust radius                    ....  0.300
Updating the Hessian (BFGS)             .... done
Forming the augmented Hessian           .... done
Diagonalizing the augmented Hessian     .... done
Last element of RFO vector              ....  0.963832052
Lowest eigenvalues of augmented Hessian:
 -0.004629820  0.010648316  0.010921162  0.013450857  0.013520924
Length of the computed step             ....  0.276511211
The final length of the internal step   ....  0.276511211
Converting the step to cartesian space:
 Initial RMS(Int)=    0.0222819083
Transforming coordinates:
 Iter   0:  RMS(Cart)=    0.0836811993 RMS(Int)=    0.7127624029
 Iter   1:  RMS(Cart)=    0.0035822530 RMS(Int)=    0.0017879720
 Iter   2:  RMS(Cart)=    0.0002727799 RMS(Int)=    0.0000973645
 Iter   3:  RMS(Cart)=    0.0000246043 RMS(Int)=    0.0000129450
 Iter   4:  RMS(Cart)=    0.0000020171 RMS(Int)=    0.0000009641
 Iter   5:  RMS(Cart)=    0.0000001917 RMS(Int)=    0.0000001066
 Iter   6:  RMS(Cart)=    0.0000000163 RMS(Int)=    0.0000000096
done
Storing new coordinates                 .... done

                                .--------------------.
          ----------------------|Geometry convergence|-------------------------
          Item                value                   Tolerance       Converged
          ---------------------------------------------------------------------
          Energy change      -0.0074922001            0.0000050000      NO
          RMS gradient        0.0025108397            0.0001000000      NO
          MAX gradient        0.0202939425            0.0003000000      NO
          RMS step            0.0222819083            0.0020000000      NO
          MAX step            0.0762104301            0.0040000000      NO
          ........................................................
          Max(Bonds)      0.0156      Max(Angles)    1.91
          Max(Dihed)        4.37      Max(Improp)    0.00
          ---------------------------------------------------------------------

The optimization has not yet converged - more geometry cycles are needed


    ---------------------------------------------------------------------------
                         Redundant Internal Coordinates
                            (Angstroem and degrees)

        Definition                    Value    dE/dq     Step     New-Value
    ----------------------------------------------------------------------------
     1. B(P   1,O   0)                1.4759  0.020294 -0.0155    1.4604   
     2. B(O   2,P   1)                1.5918  0.000783 -0.0011    1.5907   
     3. B(O   3,P   1)                1.6006 -0.005275  0.0058    1.6064   
     4. B(O   4,P   1)                1.5900  0.004853 -0.0057    1.5844   
     5. B(C   5,O   4)                1.4193  0.000532 -0.0016    1.4177   
     6. B(C   6,C   5)                1.5289 -0.001271  0.0016    1.5305   
     7. B(O   7,C   6)                1.4275  0.002124 -0.0092    1.4184   
     8. B(C   8,O   7)                1.4070  0.002981 -0.0079    1.3991   
     9. B(O   9,C   8)                1.4092  0.004538 -0.0087    1.4005   
    10. B(C  10,C   8)                1.5340 -0.002386  0.0034    1.5374   
    11. B(O  11,C  10)                1.4218  0.006796 -0.0156    1.4062   
    12. B(C  12,C  10)                1.5343 -0.000874  0.0038    1.5380   
    13. B(O  13,C  12)                1.4248  0.005406 -0.0118    1.4130   
    14. B(C  14,C  12)                1.5240 -0.000853  0.0041    1.5281   
    15. B(C  14,C   6)                1.5287 -0.001672  0.0013    1.5299   
    16. B(O  15,C  14)                1.4161  0.005342 -0.0118    1.4043   
    17. B(H  16,O   2)                0.9576  0.001643 -0.0055    0.9520   
    18. B(H  17,O   3)                0.9578  0.002008 -0.0063    0.9515   
    19. B(H  18,C   5)                1.0945  0.000496 -0.0010    1.0935   
    20. B(H  19,C   5)                1.0930  0.000047 -0.0005    1.0925   
    21. B(H  20,C   6)                1.0955  0.000198 -0.0005    1.0950   
    22. B(H  21,C   8)                1.0969 -0.001383  0.0035    1.1004   
    23. B(H  22,O   9)                0.9651  0.000471 -0.0023    0.9629   
    24. B(H  23,C  10)                1.0923 -0.000651  0.0009    1.0932   
    25. B(H  24,O  11)                0.9660  0.000852 -0.0031    0.9629   
    26. B(H  25,C  12)                1.1004 -0.000939  0.0027    1.1031   
    27. B(H  26,O  13)                0.9653  0.001371 -0.0044    0.9610   
    28. B(H  27,C  14)                1.0991 -0.000605  0.0019    1.1010   
    29. B(H  28,O  15)                0.9682  0.001200 -0.0040    0.9642   
    30. A(O   2,P   1,O   3)          102.36  0.002514   -0.40    101.95   
    31. A(O   0,P   1,O   4)          115.84  0.003778   -0.95    114.89   
    32. A(O   3,P   1,O   4)          104.88 -0.002012    0.25    105.13   
    33. A(O   2,P   1,O   4)          105.24  0.003033   -1.04    104.20   
    34. A(O   0,P   1,O   2)          114.28 -0.005011    1.28    115.56   
    35. A(O   0,P   1,O   3)          112.89 -0.002025    0.80    113.68   
    36. A(P   1,O   2,H  16)          110.13  0.002286   -0.60    109.53   
    37. A(P   1,O   3,H  17)          110.03  0.001379   -0.36    109.67   
    38. A(P   1,O   4,C   5)          118.99 -0.000890    0.13    119.12   
    39. A(C   6,C   5,H  18)          110.80  0.001099   -0.37    110.43   
    40. A(H  18,C   5,H  19)          108.41 -0.002167    1.06    109.46   
    41. A(O   4,C   5,C   6)          110.68 -0.002789    0.61    111.30   
    42. A(O   4,C   5,H  19)          110.77 -0.000304    0.15    110.91   
    43. A(C   6,C   5,H  19)          109.58  0.003218   -1.28    108.30   
    44. A(O   4,C   5,H  18)          106.55  0.000862   -0.11    106.44   
    45. A(C  14,C   6,H  20)          109.16 -0.000243   -0.10    109.05   
    46. A(O   7,C   6,C  14)          112.91  0.000527   -0.45    112.47   
    47. A(C   5,C   6,O   7)          111.13 -0.001210    0.64    111.77   
    48. A(C   5,C   6,C  14)          110.61  0.001090   -0.39    110.22   
    49. A(O   7,C   6,H  20)          104.82 -0.000181    0.20    105.02   
    50. A(C   5,C   6,H  20)          107.93 -0.000072    0.14    108.07   
    51. A(C   6,O   7,C   8)          114.99 -0.000679    0.32    115.32   
    52. A(O   9,C   8,C  10)          109.75  0.003713   -1.02    108.73   
    53. A(O   7,C   8,C  10)          111.10 -0.001823    0.25    111.35   
    54. A(C  10,C   8,H  21)          108.87  0.000107   -0.30    108.57   
    55. A(O   9,C   8,H  21)          109.44 -0.002100    1.08    110.51   
    56. A(O   7,C   8,H  21)          106.31  0.002279   -1.58    104.73   
    57. A(O   7,C   8,O   9)          111.28 -0.002251    1.57    112.85   
    58. A(C   8,O   9,H  22)          106.70 -0.005920    1.77    108.47   
    59. A(C   8,C  10,C  12)          110.83  0.002045   -0.57    110.25   
    60. A(C   8,C  10,O  11)          111.07 -0.000225    0.01    111.07   
    61. A(C  12,C  10,H  23)          110.24 -0.000440   -0.50    109.74   
    62. A(O  11,C  10,H  23)          105.66  0.000404    0.04    105.70   
    63. A(C   8,C  10,H  23)          109.41  0.000141   -0.56    108.85   
    64. A(O  11,C  10,C  12)          109.52 -0.002024    1.65    111.16   
    65. A(C  10,O  11,H  24)          107.63 -0.002444    0.68    108.31   
    66. A(C  14,C  12,H  25)          109.20  0.000686   -0.58    108.62   
    67. A(O  13,C  12,H  25)          107.01 -0.002284    1.91    108.92   
    68. A(C  10,C  12,H  25)          110.45  0.002129   -1.07    109.38   
    69. A(O  13,C  12,C  14)          108.64  0.001766   -0.85    107.79   
    70. A(C  10,C  12,C  14)          110.27 -0.000613   -0.12    110.15   
    71. A(C  10,C  12,O  13)          111.19 -0.001686    0.76    111.95   
    72. A(C  12,O  13,H  26)          106.51 -0.003671    1.04    107.55   
    73. A(O  15,C  14,H  27)          107.89 -0.002071    1.60    109.50   
    74. A(C  12,C  14,H  27)          109.45  0.001251   -0.84    108.61   
    75. A(C  12,C  14,O  15)          110.55 -0.001119    0.69    111.24   
    76. A(C   6,C  14,H  27)          111.29  0.000493   -0.64    110.65   
    77. A(C   6,C  14,O  15)          109.13  0.002160   -1.13    107.99   
    78. A(C   6,C  14,C  12)          108.54 -0.000719    0.33    108.87   
    79. A(C  14,O  15,H  28)          105.31 -0.003198    0.89    106.20   
    80. D(H  16,O   2,P   1,O   3)     86.55 -0.001295    1.42     87.97   
    81. D(H  16,O   2,P   1,O   0)    -35.84  0.002228    0.04    -35.79   
    82. D(H  16,O   2,P   1,O   4)   -164.05 -0.001567    1.19   -162.86   
    83. D(H  17,O   3,P   1,O   4)     92.03 -0.001050    2.65     94.68   
    84. D(H  17,O   3,P   1,O   2)   -158.29  0.002488    1.46   -156.84   
    85. D(H  17,O   3,P   1,O   0)    -34.96 -0.003048    3.16    -31.80   
    86. D(C   5,O   4,P   1,O   3)     59.37  0.002155   -2.91     56.46   
    87. D(C   5,O   4,P   1,O   2)    -48.20 -0.000970   -2.18    -50.38   
    88. D(C   5,O   4,P   1,O   0)   -175.47  0.000479   -2.31   -177.79   
    89. D(H  18,C   5,O   4,P   1)   -142.89  0.001636   -3.21   -146.10   
    90. D(C   6,C   5,O   4,P   1)     96.57  0.001360   -3.05     93.52   
    91. D(H  19,C   5,O   4,P   1)    -25.18 -0.000615   -1.94    -27.12   
    92. D(O   7,C   6,C   5,H  19)    176.68 -0.000369   -0.79    175.88   
    93. D(O   7,C   6,C   5,H  18)    -63.75 -0.000311   -0.54    -64.29   
    94. D(H  20,C   6,C   5,H  18)   -178.16  0.000589   -1.20   -179.35   
    95. D(H  20,C   6,C   5,H  19)     62.27  0.000531   -1.45     60.82   
    96. D(C  14,C   6,C   5,H  19)    -57.08  0.000236   -1.18    -58.26   
    97. D(C  14,C   6,C   5,H  18)     62.50  0.000294   -0.93     61.56   
    98. D(C  14,C   6,C   5,O   4)   -179.53  0.000296   -0.91   -180.44   
    99. D(O   7,C   6,C   5,O   4)     54.23 -0.000309   -0.53     53.70   
   100. D(H  20,C   6,C   5,O   4)    -60.18  0.000591   -1.18    -61.36   
   101. D(C   8,O   7,C   6,H  20)   -147.74 -0.000063   -0.01   -147.75   
   102. D(C   8,O   7,C   6,C  14)    -29.03 -0.000190   -0.24    -29.27   
   103. D(C   8,O   7,C   6,C   5)     95.93  0.000712   -0.59     95.33   
   104. D(H  21,C   8,O   7,C   6)   -176.93 -0.000372   -0.34   -177.27   
   105. D(C  10,C   8,O   7,C   6)     64.77 -0.000873    0.85     65.62   
   106. D(O   9,C   8,O   7,C   6)    -57.85 -0.002760    0.89    -56.97   
   107. D(H  22,O   9,C   8,H  21)     44.95 -0.001497    3.99     48.94   
[...]
                 84         85         86    
      0      -0.000009  -0.000410  -0.000348
      1       0.000001  -0.000314  -0.000096
      2       0.000000   0.000059  -0.000153
      3       0.000009  -0.000086   0.000087
      4      -0.000002   0.000404  -0.000244
      5       0.000004  -0.000372  -0.000235
      6       0.000264  -0.049660  -0.001019
      7      -0.000166   0.030674   0.000883
      8       0.000116  -0.021571  -0.000542
      9      -0.000000   0.000270   0.006357
     10      -0.000035   0.000749  -0.052277
     11      -0.000027   0.000887  -0.033786
     12      -0.000003  -0.000267  -0.000112
     13       0.000002   0.000154   0.000282
     14      -0.000003   0.000550   0.000343
     15       0.000041   0.000120  -0.000108
     16       0.000022  -0.000399  -0.000256
     17       0.000004  -0.000282  -0.000082
     18       0.000047   0.000349  -0.000002
     19       0.000020  -0.000013  -0.000040
     20       0.000091   0.000180  -0.000030
     21      -0.000046  -0.000097  -0.000064
     22      -0.000013   0.000432  -0.000009
     23      -0.000011  -0.000310   0.000011
     24       0.000069  -0.000141   0.000076
     25      -0.000006  -0.000463   0.000046
     26       0.000009   0.000100   0.000026
     27      -0.000038  -0.000775  -0.000380
     28       0.000010   0.000673   0.000205
     29       0.000010   0.000212   0.000149
     30      -0.000195  -0.000024   0.000016
     31       0.000046   0.000020  -0.000012
     32      -0.000123   0.000044   0.000015
     33       0.000390   0.000625  -0.000046
     34       0.000212   0.000344  -0.000012
     35      -0.000061  -0.000148  -0.000004
     36       0.001626  -0.000042   0.000019
     37       0.000035  -0.000006  -0.000012
     38       0.000018   0.000063  -0.000014
     39       0.054841   0.000308  -0.000040
     40      -0.013773  -0.000063   0.000005
     41       0.025352   0.000093  -0.000006
     42       0.000262   0.000017   0.000015
     43       0.000059  -0.000034   0.000015
     44      -0.000081   0.000010  -0.000021
     45      -0.001422   0.000069  -0.000058
     46      -0.000298   0.000019  -0.000007
     47       0.000849  -0.000114   0.000046
     48      -0.004231   0.794792   0.014020
     49       0.002646  -0.491289  -0.008921
     50      -0.001898   0.349630   0.006271
     51      -0.000024   0.000136  -0.095159
     52       0.000537  -0.014846   0.831063
     53       0.000365  -0.010768   0.544037
     54      -0.000139  -0.000191   0.000220
     55      -0.000031   0.000025   0.000023
     56      -0.000339   0.001056   0.000584
     57       0.000139  -0.000642   0.001016
     58      -0.000092  -0.000907   0.001012
     59       0.000012  -0.001579  -0.000541
     60       0.000134  -0.000288   0.000038
     61      -0.000166  -0.000111   0.000459
     62      -0.000137  -0.000100   0.000003
     63      -0.000306  -0.000541  -0.000024
     64       0.000142  -0.000638  -0.000062
     65       0.000402  -0.001370  -0.000276
     66       0.000298   0.014654   0.006890
     67      -0.000089  -0.008535  -0.003335
     68      -0.000062  -0.005253  -0.002472
     69       0.000172   0.000235  -0.000004
     70      -0.000512   0.000128  -0.000027
     71      -0.001704  -0.000096   0.000011
     72      -0.005903  -0.009982   0.000665
     73      -0.003794  -0.005196   0.000358
     74       0.000926   0.002148  -0.000092
     75      -0.000447  -0.000074   0.000023
     76      -0.001309   0.000166   0.000097
     77       0.000124  -0.000045   0.000009
     78      -0.889507  -0.004848   0.000537
     79       0.217425   0.001152  -0.000111
     80      -0.396003  -0.001886   0.000195
     81      -0.000593   0.000040  -0.000064
     82       0.003074   0.000172  -0.000247
     83      -0.000410   0.000034   0.000106
     84       0.021377  -0.001366   0.000899
     85       0.003293  -0.000357   0.000156
     86      -0.016655   0.001165  -0.000647


-----------
IR SPECTRUM
-----------

 Mode   freq       eps      Int      T**2         TX        TY        TZ
       cm**-1   L/(mol*cm) km/mol    a.u.
----------------------------------------------------------------------------
  6:     21.73   0.000519    2.62  0.007461  ( 0.000552 -0.065764 -0.055999)
  7:     59.53   0.000679    3.43  0.003559  ( 0.016570  0.048950 -0.029805)
  8:     81.24   0.000442    2.23  0.001697  ( 0.029534 -0.026340 -0.011454)
  9:     86.46   0.000695    3.51  0.002509  ( 0.009430 -0.001560  0.049165)
 10:    130.64   0.000585    2.95  0.001397  (-0.007361 -0.033183  0.015535)
 11:    137.94   0.002245   11.35  0.005080  (-0.036403  0.022560  0.056971)
 12:    153.85   0.001648    8.33  0.003343  ( 0.012201  0.052233 -0.021593)
 13:    176.98   0.012668   64.02  0.022337  (-0.064856 -0.094320  0.096096)
 14:    204.84   0.004366   22.07  0.006652  ( 0.056775  0.021776 -0.054357)
 15:    233.04   0.000639    3.23  0.000856  (-0.027684 -0.003905  0.008599)
 16:    248.04   0.001025    5.18  0.001290  ( 0.021866  0.009675  0.026801)
 17:    280.83   0.001423    7.19  0.001581  ( 0.014592  0.005540 -0.036577)
 18:    286.87   0.001214    6.14  0.001321  (-0.030595 -0.005699 -0.018770)
 19:    311.62   0.002216   11.20  0.002220  (-0.021872 -0.033673  0.024644)
 20:    318.87   0.021019  106.22  0.020571  ( 0.033489  0.113715  0.080734)
 21:    332.48   0.029364  148.39  0.027561  (-0.082213  0.102252  0.101717)
 22:    341.69   0.001429    7.22  0.001305  (-0.002792  0.016457 -0.032039)
 23:    362.14   0.020675  104.48  0.017817  ( 0.002129  0.002896  0.133430)
 24:    382.09   0.010937   55.27  0.008933  (-0.066298  0.049343 -0.045855)
 25:    392.17   0.008950   45.23  0.007121  (-0.016493  0.058222 -0.058819)
 26:    409.32   0.006654   33.63  0.005073  (-0.002559  0.042405  0.057167)
 27:    416.34   0.042579  215.17  0.031914  (-0.082045  0.156715  0.024959)
 28:    427.88   0.016624   84.01  0.012125  (-0.054050 -0.043700  0.085402)
 29:    437.10   0.002600   13.14  0.001857  (-0.005990  0.041075  0.011554)
 30:    466.10   0.011833   59.80  0.007922  ( 0.029893 -0.083298 -0.009503)
 31:    479.30   0.008839   44.67  0.005755  ( 0.048743 -0.045386 -0.036320)
 32:    509.38   0.002657   13.43  0.001627  ( 0.032880 -0.019727  0.012538)
 33:    528.76   0.001651    8.34  0.000974  (-0.020213  0.005454  0.023153)
 34:    588.78   0.001636    8.27  0.000867  (-0.016906  0.021714  0.010474)
 35:    664.64   0.009092   45.95  0.004269  ( 0.006079  0.025110 -0.060010)
 36:    728.13   0.044251  223.62  0.018965  ( 0.121719  0.057905  0.028222)
 37:    738.59   0.015704   79.36  0.006635  ( 0.007769  0.050614  0.063347)
 38:    789.65   0.002817   14.24  0.001113  ( 0.002863  0.007915  0.032286)
 39:    820.20   0.029582  149.49  0.011255  ( 0.026438 -0.025774 -0.099457)
 40:    855.07   0.044097  222.85  0.016094  (-0.091146  0.080735 -0.035605)
 41:    865.74   0.039594  200.09  0.014272  (-0.021170 -0.103406  0.055954)
 42:    903.74   0.039925  201.76  0.013786  (-0.020512 -0.024731  0.112933)
 43:    911.17   0.019504   98.57  0.006680  (-0.053444  0.048070  0.038898)
 44:    925.97   0.019662   99.37  0.006626  (-0.080590  0.010649 -0.004288)
 45:    934.17   0.046410  234.54  0.015504  (-0.124235 -0.003574  0.007511)
 46:    985.22   0.010568   53.41  0.003347  ( 0.034721  0.022540  0.040420)
 47:   1033.58   0.000056    0.28  0.000017  ( 0.002695  0.002986 -0.000785)
 48:   1050.97   0.013938   70.44  0.004139  (-0.054248 -0.004738 -0.034253)
 49:   1070.11   0.001798    9.08  0.000524  ( 0.005684  0.021554  0.005225)
 50:   1079.56   0.007610   38.46  0.002200  (-0.002221 -0.022527  0.041078)
 51:   1101.77   0.031454  158.95  0.008909  (-0.017564 -0.081465  0.044315)
 52:   1107.95   0.016658   84.18  0.004692  ( 0.039975  0.007303  0.055142)
 53:   1119.39   0.030621  154.75  0.008537  ( 0.037050 -0.074821 -0.039568)
 54:   1126.41   0.026451  133.67  0.007328  (-0.007584  0.016201  0.083714)
 55:   1141.79   0.013967   70.58  0.003817  ( 0.008442 -0.059474  0.014453)
 56:   1165.23   0.004383   22.15  0.001174  (-0.012059  0.014389 -0.028661)
 57:   1193.77   0.003685   18.62  0.000963  (-0.003343  0.024432 -0.018848)
 58:   1211.59   0.020431  103.25  0.005262  (-0.059419 -0.041495  0.003148)
 59:   1224.55   0.002619   13.23  0.000667  (-0.002785  0.023516  0.010322)
 60:   1227.92   0.044594  225.36  0.011333  ( 0.060414  0.077050  0.041792)
 61:   1234.04   0.050313  254.26  0.012723  (-0.091983 -0.058191 -0.029598)
 62:   1271.88   0.000946    4.78  0.000232  (-0.002842  0.009776  0.011335)
 63:   1275.08   0.010294   52.02  0.002519  ( 0.027971  0.016911  0.038092)
 64:   1280.50   0.010796   54.56  0.002631  (-0.009029  0.022738 -0.045083)
 65:   1284.21   0.011278   56.99  0.002740  (-0.004984 -0.042628  0.029975)
 66:   1311.74   0.007069   35.72  0.001682  ( 0.019645  0.030629 -0.018912)
 67:   1316.78   0.011460   57.91  0.002716  (-0.050238 -0.011917 -0.007074)
 68:   1320.15   0.002040   10.31  0.000482  (-0.009342 -0.015301  0.012685)
 69:   1334.07   0.002424   12.25  0.000567  (-0.022461  0.007500 -0.002510)
 70:   1353.20   0.003447   17.42  0.000795  ( 0.004532  0.019183  0.020158)
 71:   1354.25   0.005153   26.04  0.001187  (-0.006840 -0.026484 -0.020959)
 72:   1363.33   0.013828   69.88  0.003165  (-0.018061 -0.015363  0.051019)
 73:   1443.10   0.000451    2.28  0.000098  (-0.004174  0.004603 -0.007677)
 74:   2826.35   0.010136   51.22  0.001119  ( 0.000135  0.029795 -0.015211)
 75:   2842.49   0.011344   57.33  0.001245  (-0.001362  0.002253 -0.035193)
 76:   2869.63   0.010774   54.45  0.001172  ( 0.001230 -0.030896 -0.014683)
 77:   2924.17   0.005389   27.23  0.000575  ( 0.000265 -0.023876 -0.002219)
 78:   2947.44   0.002021   10.22  0.000214  (-0.012050 -0.006183  0.005530)
 79:   2965.85   0.001945    9.83  0.000205  ( 0.002472  0.014079 -0.000557)
 80:   2985.19   0.002566   12.97  0.000268  ( 0.000729 -0.000129  0.016361)
 81:   3167.80   0.123378  623.50  0.012154  (-0.098728  0.036691  0.032568)
 82:   3519.29   0.010483   52.98  0.000930  ( 0.025798  0.007189 -0.014572)
 83:   3523.27   0.004617   23.33  0.000409  (-0.016427  0.006410 -0.009899)
 84:   3547.89   0.002597   13.13  0.000228  (-0.009400  0.011698 -0.001805)
 85:   3560.85   0.019946  100.80  0.001748  ( 0.034629 -0.023262  0.002787)
 86:   3628.95   0.011230   56.75  0.000966  (-0.005742  0.028583  0.010759)

* The epsilon (eps) is given for a Dirac delta lineshape.
** The dipole moment derivative (T) already includes vibrational overlap.

The first frequency considered to be a vibration is 6
The total number of vibrations considered is 81


--------------------------
THERMOCHEMISTRY AT 298.15K
--------------------------

Temperature         ... 298.15 K
Pressure            ... 1.00 atm
Total Mass          ... 260.13 AMU

Throughout the following assumptions are being made:
  (1) The electronic state is orbitally nondegenerate
  (2) There are no thermally accessible electronically excited states
  (3) Hindered rotations indicated by low frequency modes are not
      treated as such but are treated as vibrations and this may
      cause some error
  (4) All equations used are the standard statistical mechanics
      equations for an ideal gas
  (5) All vibrations are strictly harmonic

freq.      21.73  E(vib)   ...       0.56 
freq.      59.53  E(vib)   ...       0.51 
freq.      81.24  E(vib)   ...       0.48 
freq.      86.46  E(vib)   ...       0.48 
freq.     130.64  E(vib)   ...       0.43 
freq.     137.94  E(vib)   ...       0.42 
freq.     153.85  E(vib)   ...       0.40 
freq.     176.98  E(vib)   ...       0.38 
freq.     204.84  E(vib)   ...       0.35 
freq.     233.04  E(vib)   ...       0.32 
freq.     248.04  E(vib)   ...       0.31 
freq.     280.83  E(vib)   ...       0.28 
freq.     286.87  E(vib)   ...       0.27 
freq.     311.62  E(vib)   ...       0.25 
freq.     318.87  E(vib)   ...       0.25 
freq.     332.48  E(vib)   ...       0.24 
freq.     341.69  E(vib)   ...       0.23 
freq.     362.14  E(vib)   ...       0.22 
freq.     382.09  E(vib)   ...       0.21 
freq.     392.17  E(vib)   ...       0.20 
freq.     409.32  E(vib)   ...       0.19 
freq.     416.34  E(vib)   ...       0.18 
freq.     427.88  E(vib)   ...       0.18 
freq.     437.10  E(vib)   ...       0.17 
freq.     466.10  E(vib)   ...       0.16 
freq.     479.30  E(vib)   ...       0.15 
freq.     509.38  E(vib)   ...       0.14 
freq.     528.76  E(vib)   ...       0.13 
freq.     588.78  E(vib)   ...       0.10 
freq.     664.64  E(vib)   ...       0.08 
freq.     728.13  E(vib)   ...       0.06 
freq.     738.59  E(vib)   ...       0.06 
freq.     789.65  E(vib)   ...       0.05 
freq.     820.20  E(vib)   ...       0.05 
freq.     855.07  E(vib)   ...       0.04 
freq.     865.74  E(vib)   ...       0.04 
freq.     903.74  E(vib)   ...       0.03 
freq.     911.17  E(vib)   ...       0.03 
freq.     925.97  E(vib)   ...       0.03 
freq.     934.17  E(vib)   ...       0.03 
freq.     985.22  E(vib)   ...       0.02 
freq.    1033.58  E(vib)   ...       0.02 
freq.    1050.97  E(vib)   ...       0.02 
freq.    1070.11  E(vib)   ...       0.02 
freq.    1079.56  E(vib)   ...       0.02 
freq.    1101.77  E(vib)   ...       0.02 
freq.    1107.95  E(vib)   ...       0.02 
freq.    1119.39  E(vib)   ...       0.01 
freq.    1126.41  E(vib)   ...       0.01 
freq.    1141.79  E(vib)   ...       0.01 
freq.    1165.23  E(vib)   ...       0.01 
freq.    1193.77  E(vib)   ...       0.01 
freq.    1211.59  E(vib)   ...       0.01 
freq.    1224.55  E(vib)   ...       0.01 
freq.    1227.92  E(vib)   ...       0.01 
freq.    1234.04  E(vib)   ...       0.01 
freq.    1271.88  E(vib)   ...       0.01 
freq.    1275.08  E(vib)   ...       0.01 
freq.    1280.50  E(vib)   ...       0.01 
freq.    1284.21  E(vib)   ...       0.01 
freq.    1311.74  E(vib)   ...       0.01 
freq.    1316.78  E(vib)   ...       0.01 
freq.    1320.15  E(vib)   ...       0.01 
freq.    1334.07  E(vib)   ...       0.01 
freq.    1353.20  E(vib)   ...       0.01 
freq.    1354.25  E(vib)   ...       0.01 
freq.    1363.33  E(vib)   ...       0.01 
freq.    1443.10  E(vib)   ...       0.00 
freq.    2826.35  E(vib)   ...       0.00 
freq.    2842.49  E(vib)   ...       0.00 
freq.    2869.63  E(vib)   ...       0.00 
freq.    2924.17  E(vib)   ...       0.00 
freq.    2947.44  E(vib)   ...       0.00 
freq.    2965.85  E(vib)   ...       0.00 
freq.    2985.19  E(vib)   ...       0.00 
freq.    3167.80  E(vib)   ...       0.00 
freq.    3519.29  E(vib)   ...       0.00 
freq.    3523.27  E(vib)   ...       0.00 
freq.    3547.89  E(vib)   ...       0.00 
freq.    3560.85  E(vib)   ...       0.00 
freq.    3628.95  E(vib)   ...       0.00 

------------
INNER ENERGY
------------

The inner energy is: U= E(el) + E(ZPE) + E(vib) + E(rot) + E(trans)
    E(el)   - is the total energy from the electronic structure calculation
              = E(kin-el) + E(nuc-el) + E(el-el) + E(nuc-nuc)
    E(ZPE)  - the the zero temperature vibrational energy from the frequency calculation
    E(vib)  - the the finite temperature correction to E(ZPE) due to population
              of excited vibrational states
    E(rot)  - is the rotational thermal energy
    E(trans)- is the translational thermal energy

Summary of contributions to the inner energy U:
Electronic energy                ...    -58.76194969 Eh
Zero point energy                ...      0.21240366 Eh     133.29 kcal/mol
Thermal vibrational correction   ...      0.01433242 Eh       8.99 kcal/mol
Thermal rotational correction    ...      0.00141627 Eh       0.89 kcal/mol
Thermal translational correction ...      0.00141627 Eh       0.89 kcal/mol
-----------------------------------------------------------------------
Total thermal energy                    -58.53238107 Eh


Summary of corrections to the electronic energy:
(perhaps to be used in another calculation)
Total thermal correction                  0.01716497 Eh      10.77 kcal/mol
Non-thermal (ZPE) correction              0.21240366 Eh     133.29 kcal/mol
-----------------------------------------------------------------------
Total correction                          0.22956862 Eh     144.06 kcal/mol


--------
ENTHALPY
--------

The enthalpy is H = U + kB*T
                kB is Boltzmann's constant
Total free energy                 ...    -58.53238107 Eh 
Thermal Enthalpy correction       ...      0.00094421 Eh       0.59 kcal/mol
-----------------------------------------------------------------------
Total Enthalpy                    ...    -58.53143686 Eh


Note: Only C1 symmetry has been detected, increase convergence thresholds 
      if your molecule has a higher symmetry. Symmetry factor of 1.0 is   
      used for the rotational entropy correction. 
 

Note: Rotational entropy computed according to Herzberg 
Infrared and Raman Spectra, Chapter V,1, Van Nostrand Reinhold, 1945 
Point Group:  C1, Symmetry Number:   1  
Rotational constants in cm-1:     0.030740     0.011086     0.009747 

Vibrational entropy computed according to the QRRHO of S. Grimme
Chem.Eur.J. 2012 18 9955


-------
ENTROPY
-------

The entropy contributions are T*S = T*(S(el)+S(vib)+S(rot)+S(trans))
     S(el)   - electronic entropy
     S(vib)  - vibrational entropy
     S(rot)  - rotational entropy
     S(trans)- translational entropy
The entropies will be listed as multiplied by the temperature to get
units of energy

Electronic entropy                ...      0.00000000 Eh      0.00 kcal/mol
Vibrational entropy               ...      0.02474647 Eh     15.53 kcal/mol
Rotational entropy                ...      0.01546628 Eh      9.71 kcal/mol
Translational entropy             ...      0.02022524 Eh     12.69 kcal/mol
-----------------------------------------------------------------------
Final entropy term                ...      0.06043799 Eh     37.93 kcal/mol

In case the symmetry of your molecule has not been determined correctly
or in case you have a reason to use a different symmetry number we print 
out the resulting rotational entropy values for sn=1,12 :
 --------------------------------------------------------
|  sn= 1 | S(rot)=       0.01546628 Eh      9.71 kcal/mol|
|  sn= 2 | S(rot)=       0.01481182 Eh      9.29 kcal/mol|
|  sn= 3 | S(rot)=       0.01442899 Eh      9.05 kcal/mol|
|  sn= 4 | S(rot)=       0.01415737 Eh      8.88 kcal/mol|
|  sn= 5 | S(rot)=       0.01394668 Eh      8.75 kcal/mol|
|  sn= 6 | S(rot)=       0.01377453 Eh      8.64 kcal/mol|
|  sn= 7 | S(rot)=       0.01362899 Eh      8.55 kcal/mol|
|  sn= 8 | S(rot)=       0.01350291 Eh      8.47 kcal/mol|
|  sn= 9 | S(rot)=       0.01339170 Eh      8.40 kcal/mol|
|  sn=10 | S(rot)=       0.01329222 Eh      8.34 kcal/mol|
|  sn=11 | S(rot)=       0.01320223 Eh      8.28 kcal/mol|
|  sn=12 | S(rot)=       0.01312008 Eh      8.23 kcal/mol|
 --------------------------------------------------------


-------------------
GIBBS FREE ENERGY
-------------------

The Gibbs free energy is G = H - T*S

Total enthalpy                    ...    -58.53143686 Eh 
Total entropy correction          ...     -0.06043799 Eh    -37.93 kcal/mol
-----------------------------------------------------------------------
Final Gibbs free energy         ...    -58.59187485 Eh

For completeness - the Gibbs free energy minus the electronic energy
G-E(el)                           ...      0.17007484 Eh    106.72 kcal/mol



Timings for individual modules:

Sum of individual times         ...      431.027 sec (=   7.184 min)
Geometry relaxation             ...        3.419 sec (=   0.057 min)   0.8 %
Numerical frequency calculation ...      425.020 sec (=   7.084 min)  98.6 %
XTB module                      ...        2.589 sec (=   0.043 min)   0.6 %
                             ****ORCA TERMINATED NORMALLY****
TOTAL RUN TIME: 0 days 0 hours 7 minutes 13 seconds 729 msec
