
                                 *****************
                                 * O   R   C   A *
                                 *****************

                                            #,                                       
                                            ###                                      
                                            ####                                     
                                            #####                                    
                                            ######                                   
                                           ########,                                 
                                     ,,################,,,,,                         
                               ,,#################################,,                 
                          ,,##########################################,,             
                       ,#########################################, ''#####,          
                    ,#############################################,,   '####,        
                  ,##################################################,,,,####,       
                ,###########''''           ''''###############################       
              ,#####''   ,,,,##########,,,,          '''####'''          '####       
            ,##' ,,,,###########################,,,                        '##       
           ' ,,###''''                  '''############,,,                           
         ,,##''                                '''############,,,,        ,,,,,,###''
      ,#''                                            '''#######################'''  
     '                                                          ''''####''''         
             ,#######,   #######,   ,#######,      ##                                
            ,#'     '#,  ##    ##  ,#'     '#,    #''#        ######   ,####,        
            ##       ##  ##   ,#'  ##            #'  '#       #        #'  '#        
            ##       ##  #######   ##           ,######,      #####,   #    #        
            '#,     ,#'  ##    ##  '#,     ,#' ,#      #,         ##   #,  ,#        
             '#######'   ##     ##  '#######'  #'      '#     #####' # '####'        



                  #######################################################
                  #                        -***-                        #
                  #          Department of theory and spectroscopy      #
                  #    Directorship and core code : Frank Neese         #
                  #        Max Planck Institute fuer Kohlenforschung    #
                  #                Kaiser Wilhelm Platz 1               #
                  #                 D-45470 Muelheim/Ruhr               #
                  #                      Germany                        #
                  #                                                     #
                  #                  All rights reserved                #
                  #                        -***-                        #
                  #######################################################


                         Program Version 5.0.3 -  RELEASE  -


 With contributions from (in alphabetic order):
   Daniel Aravena         : Magnetic Suceptibility
   Michael Atanasov       : Ab Initio Ligand Field Theory (pilot matlab implementation)
   Alexander A. Auer      : GIAO ZORA, VPT2 properties, NMR spectrum
   Ute Becker             : Parallelization
   Giovanni Bistoni       : ED, misc. LED, open-shell LED, HFLD
   Martin Brehm           : Molecular dynamics
   Dmytro Bykov           : SCF Hessian
   Vijay G. Chilkuri      : MRCI spin determinant printing, contributions to CSF-ICE
   Dipayan Datta          : RHF DLPNO-CCSD density
   Achintya Kumar Dutta   : EOM-CC, STEOM-CC
   Dmitry Ganyushin       : Spin-Orbit,Spin-Spin,Magnetic field MRCI
   Miquel Garcia          : C-PCM and meta-GGA Hessian, CC/C-PCM, Gaussian charge scheme
   Yang Guo               : DLPNO-NEVPT2, F12-NEVPT2, CIM, IAO-localization
   Andreas Hansen         : Spin unrestricted coupled pair/coupled cluster methods
   Benjamin Helmich-Paris : MC-RPA, TRAH-SCF, COSX integrals
   Lee Huntington         : MR-EOM, pCC
   Robert Izsak           : Overlap fitted RIJCOSX, COSX-SCS-MP3, EOM
   Marcus Kettner         : VPT2
   Christian Kollmar      : KDIIS, OOCD, Brueckner-CCSD(T), CCSD density, CASPT2, CASPT2-K
   Simone Kossmann        : Meta GGA functionals, TD-DFT gradient, OOMP2, MP2 Hessian
   Martin Krupicka        : Initial AUTO-CI
   Lucas Lang             : DCDCAS
   Marvin Lechner         : AUTO-CI (C++ implementation), FIC-MRCC
   Dagmar Lenk            : GEPOL surface, SMD
   Dimitrios Liakos       : Extrapolation schemes; Compound Job, initial MDCI parallelization
   Dimitrios Manganas     : Further ROCIS development; embedding schemes
   Dimitrios Pantazis     : SARC Basis sets
   Anastasios Papadopoulos: AUTO-CI, single reference methods and gradients
   Taras Petrenko         : DFT Hessian,TD-DFT gradient, ASA, ECA, R-Raman, ABS, FL, XAS/XES, NRVS
   Peter Pinski           : DLPNO-MP2, DLPNO-MP2 Gradient
   Christoph Reimann      : Effective Core Potentials
   Marius Retegan         : Local ZFS, SOC
   Christoph Riplinger    : Optimizer, TS searches, QM/MM, DLPNO-CCSD(T), (RO)-DLPNO pert. Triples
   Tobias Risthaus        : Range-separated hybrids, TD-DFT gradient, RPA, STAB
   Michael Roemelt        : Original ROCIS implementation
   Masaaki Saitow         : Open-shell DLPNO-CCSD energy and density
   Barbara Sandhoefer     : DKH picture change effects
   Avijit Sen             : IP-ROCIS
   Kantharuban Sivalingam : CASSCF convergence, NEVPT2, FIC-MRCI
   Bernardo de Souza      : ESD, SOC TD-DFT
   Georgi Stoychev        : AutoAux, RI-MP2 NMR, DLPNO-MP2 response
   Willem Van den Heuvel  : Paramagnetic NMR
   Boris Wezisla          : Elementary symmetry handling
   Frank Wennmohs         : Technical directorship


 We gratefully acknowledge several colleagues who have allowed us to
 interface, adapt or use parts of their codes:
   Stefan Grimme, W. Hujo, H. Kruse, P. Pracht,  : VdW corrections, initial TS optimization,
                  C. Bannwarth, S. Ehlert          DFT functionals, gCP, sTDA/sTD-DF
   Ed Valeev, F. Pavosevic, A. Kumar             : LibInt (2-el integral package), F12 methods
   Garnet Chan, S. Sharma, J. Yang, R. Olivares  : DMRG
   Ulf Ekstrom                                   : XCFun DFT Library
   Mihaly Kallay                                 : mrcc  (arbitrary order and MRCC methods)
   Jiri Pittner, Ondrej Demel                    : Mk-CCSD
   Frank Weinhold                                : gennbo (NPA and NBO analysis)
   Christopher J. Cramer and Donald G. Truhlar   : smd solvation model
   Lars Goerigk                                  : TD-DFT with DH, B97 family of functionals
   V. Asgeirsson, H. Jonsson                     : NEB implementation
   FAccTs GmbH                                   : IRC, NEB, NEB-TS, DLPNO-Multilevel, CI-OPT
                                                   MM, QMMM, 2- and 3-layer-ONIOM, Crystal-QMMM,
                                                   LR-CPCM, SF, NACMEs, symmetry and pop. for TD-DFT,
                                                   nearIR, NL-DFT gradient (VV10), updates on ESD,
                                                   ML-optimized integration grids
   S Lehtola, MJT Oliveira, MAL Marques          : LibXC Library
   Liviu Ungur et al                             : ANISO software


 Your calculation uses the libint2 library for the computation of 2-el integrals
 For citations please refer to: http://libint.valeyev.net

 Your ORCA version has been built with support for libXC version: 5.1.0
 For citations please refer to: https://tddft.org/programs/libxc/

 This ORCA versions uses:
   CBLAS   interface :  Fast vector & matrix operations
   LAPACKE interface :  Fast linear algebra routines
   SCALAPACK package :  Parallel linear algebra routines
   Shared memory     :  Shared parallel matrices
   BLAS/LAPACK       :  OpenBLAS 0.3.15  USE64BITINT DYNAMIC_ARCH NO_AFFINITY Haswell SINGLE_THREADED
        Core in use  :  Haswell
   Copyright (c) 2011-2014, The OpenBLAS Project


Your calculation utilizes the semiempirical GFN2-xTB method
Please cite in your paper:
C. Bannwarth, Ehlert S., S. Grimme,  J. Chem. Theory Comput., 15, (2019), 1652.
   

================================================================================

================================================================================
                                        WARNINGS
                       Please study these warnings very carefully!
================================================================================


WARNING: Geometry Optimization
  ===> : Switching off AutoStart
         For restart on a previous wavefunction, please use MOREAD

WARNING: Found dipole moment calculation with XTB calculation
  ===> : Switching off dipole moment calculation


WARNING: TRAH-SCF for XTB is not implemented!
  ===> : Turning TRAH off!

================================================================================
                                       INPUT FILE
================================================================================
NAME = /tmp/C01236.inp
|  1> ! XTB2 opt numfreq
|  2> * XYZ 0 1
|  3> O 0.5556 2.3136 2.6050
|  4> C 0.0515 1.5300 1.8037
|  5> O 0.7045 0.4210 1.3944
|  6> C 0.0051 -0.7421 0.8831
|  7> C 1.0014 -1.5464 0.0414
|  8> O 1.4118 -0.7774 -1.0846
|  9> P 2.6848 -1.3191 -1.8833
| 10> O 2.6396 -2.7330 -2.3439
| 11> O 2.8369 -0.2998 -3.1025
| 12> O 3.9426 -0.9128 -0.9952
| 13> C -1.2589 -0.4046 0.0952
| 14> O -2.0296 -1.5856 -0.1389
| 15> C -2.0894 0.5838 0.8998
| 16> O -3.2810 0.8915 0.1555
| 17> C -1.2785 1.8423 1.1358
| 18> O -2.0775 2.7445 1.9105
| 19> H -0.2558 -1.3595 1.7524
| 20> H 0.5559 -2.4822 -0.3109
| 21> H 1.8851 -1.7809 0.6455
| 22> H 2.5066 -0.7175 -3.9206
| 23> H 4.0467 0.0547 -0.9622
| 24> H -1.0228 0.0283 -0.8843
| 25> H -2.9023 -1.2674 -0.4515
| 26> H -2.4267 0.1381 1.8437
| 27> H -3.6886 1.6493 0.6245
| 28> H -1.0660 2.3520 0.1888
| 29> H -1.4511 3.3791 2.3166
| 30> *
| 31> 
| 32>                          ****END OF INPUT****
================================================================================

                       *****************************
                       * Geometry Optimization Run *
                       *****************************

Geometry optimization settings:
Update method            Update   .... BFGS
Choice of coordinates    CoordSys .... Z-matrix Internals
Initial Hessian          InHess   .... Almoef's Model

Convergence Tolerances:
Energy Change            TolE     ....  5.0000e-06 Eh
Max. Gradient            TolMAXG  ....  3.0000e-04 Eh/bohr
RMS Gradient             TolRMSG  ....  1.0000e-04 Eh/bohr
Max. Displacement        TolMAXD  ....  4.0000e-03 bohr
RMS Displacement         TolRMSD  ....  2.0000e-03 bohr
Strict Convergence                ....  False
------------------------------------------------------------------------------
                        ORCA OPTIMIZATION COORDINATE SETUP
------------------------------------------------------------------------------

The optimization will be done in new redundant internal coordinates
Making redundant internal coordinates   ...  (new redundants) done
Evaluating the initial hessian          ...  (Almloef) done
Evaluating the coordinates              ...  done
Calculating the B-matrix                .... done
Calculating the G-matrix                .... done
Diagonalizing the G-matrix              .... done
Small eigenvalue found = 7.915e-03
Small eigenvalue found = 1.542e-02
The first mode is                       ....   66
The number of degrees of freedom        ....   75

    -----------------------------------------------------------------
                    Redundant Internal Coordinates


    -----------------------------------------------------------------
         Definition                    Initial Value    Approx d2E/dq
    -----------------------------------------------------------------
      1. B(C   1,O   0)                  1.2289         1.011298   
      2. B(O   2,C   1)                  1.3505         0.647016   
      3. B(C   3,O   2)                  1.4503         0.448394   
      4. B(C   4,C   3)                  1.5323         0.370419   
      5. B(O   5,C   4)                  1.4240         0.493961   
      6. B(P   6,O   5)                  1.5975         0.877758   
      7. B(O   7,P   6)                  1.4877         1.313604   
      8. B(O   8,P   6)                  1.5964         0.881130   
      9. B(O   9,P   6)                  1.5924         0.894110   
     10. B(C  10,C   3)                  1.5272         0.377415   
     11. B(O  11,C  10)                  1.4295         0.483967   
     12. B(C  12,C  10)                  1.5212         0.385851   
     13. B(O  13,C  12)                  1.4383         0.468695   
     14. B(C  14,C  12)                  1.5156         0.393853   
     15. B(C  14,C   1)                  1.5207         0.386562   
     16. B(O  15,C  14)                  1.4327         0.478418   
     17. B(H  16,C   3)                  1.0977         0.350063   
     18. B(H  17,C   4)                  1.0947         0.353972   
     19. B(H  18,C   4)                  1.0958         0.352464   
     20. B(H  19,O   8)                  0.9761         0.490014   
     21. B(H  20,O   9)                  0.9736         0.494537   
     22. B(H  21,C  10)                  1.0966         0.351454   
     23. B(H  22,O  11)                  0.9801         0.482965   
     24. B(H  23,C  12)                  1.0970         0.350983   
     25. B(H  24,O  13)                  0.9800         0.483160   
     26. B(H  25,C  14)                  1.0962         0.351929   
     27. B(H  26,O  15)                  0.9798         0.483475   
     28. A(O   0,C   1,C  14)          120.9434         0.432534   
     29. A(O   2,C   1,C  14)          117.2855         0.399505   
     30. A(O   0,C   1,O   2)          121.5264         0.471835   
     31. A(C   1,O   2,C   3)          122.1565         0.407467   
     32. A(C  10,C   3,H  16)          109.6421         0.323360   
     33. A(C   4,C   3,C  10)          111.7614         0.363460   
     34. A(O   2,C   3,C   4)          107.5207         0.372028   
     35. A(O   2,C   3,C  10)          113.8148         0.373229   
     36. A(O   2,C   3,H  16)          106.6482         0.330676   
     37. A(C   4,C   3,H  16)          107.1168         0.322370   
     38. A(C   3,C   4,H  17)          111.1547         0.322957   
     39. A(O   5,C   4,H  18)          108.6064         0.336411   
     40. A(H  17,C   4,H  18)          108.8244         0.289084   
     41. A(C   3,C   4,O   5)          109.7727         0.378297   
     42. A(C   3,C   4,H  18)          109.5019         0.322731   
     43. A(O   5,C   4,H  17)          108.9334         0.336651   
     44. A(C   4,O   5,P   6)          116.2254         0.467977   
     45. A(O   7,P   6,O   9)          116.0493         0.604967   
     46. A(O   5,P   6,O   8)          103.9604         0.558413   
     47. A(O   5,P   6,O   7)          116.9272         0.602816   
     48. A(O   8,P   6,O   9)          100.8220         0.560378   
     49. A(O   7,P   6,O   8)          111.9168         0.603262   
     50. A(O   5,P   6,O   9)          105.3118         0.559969   
     51. A(P   6,O   8,H  19)          109.5485         0.415331   
     52. A(P   6,O   9,H  20)          110.9090         0.417095   
     53. A(C   3,C  10,C  12)          108.8184         0.366007   
     54. A(C   3,C  10,O  11)          110.3727         0.378183   
     55. A(C  12,C  10,H  21)          109.4804         0.324747   
     56. A(O  11,C  10,H  21)          107.2135         0.335109   
     57. A(C   3,C  10,H  21)          111.7067         0.323570   
     58. A(O  11,C  10,C  12)          109.2123         0.379634   
     59. A(C  10,O  11,H  22)          105.3116         0.350386   
     60. A(O  13,C  12,C  14)          110.2558         0.378876   
     61. A(C  14,C  12,H  23)          111.5862         0.325773   
     62. A(O  13,C  12,H  23)          106.1087         0.333256   
     63. A(C  10,C  12,C  14)          109.2557         0.368693   
     64. A(C  10,C  12,H  23)          111.0383         0.324675   
     65. A(C  10,C  12,O  13)          108.5185         0.377532   
     66. A(C  12,O  13,H  24)          105.2105         0.348520   
     67. A(C  12,C  14,O  15)          107.9820         0.380226   
     68. A(C   1,C  14,O  15)          112.3086         0.378997   
     69. A(O  15,C  14,H  25)          106.4055         0.334543   
     70. A(C  12,C  14,H  25)          110.8102         0.325917   
     71. A(C   1,C  14,C  12)          111.4569         0.368809   
     72. A(C   1,C  14,H  25)          107.7799         0.324917   
     73. A(C  14,O  15,H  26)          105.9885         0.349767   
     74. D(C   3,O   2,C   1,C  14)    -29.3378         0.030916   
     75. D(C   3,O   2,C   1,O   0)    156.2952         0.030916   
     76. D(C   4,C   3,O   2,C   1)    158.6024         0.015834   
     77. D(H  16,C   3,O   2,C   1)    -86.7810         0.015834   
     78. D(C  10,C   3,O   2,C   1)     34.2488         0.015834   
     79. D(O   5,C   4,C   3,C  10)     61.7122         0.010967   
     80. D(H  18,C   4,C   3,O   2)     55.2690         0.010967   
     81. D(H  18,C   4,C   3,H  16)    -59.0350         0.010967   
     82. D(H  17,C   4,C   3,H  16)     61.2359         0.010967   
     83. D(H  17,C   4,C   3,C  10)    -58.8731         0.010967   
     84. D(O   5,C   4,C   3,H  16)   -178.1788         0.010967   
     85. D(O   5,C   4,C   3,O   2)    -63.8748         0.010967   
     86. D(H  17,C   4,C   3,O   2)    175.5399         0.010967   
     87. D(H  18,C   4,C   3,C  10)   -179.1439         0.010967   
     88. D(P   6,O   5,C   4,C   3)    166.6239         0.019276   
     89. D(P   6,O   5,C   4,H  18)     46.9315         0.019276   
     90. D(P   6,O   5,C   4,H  17)    -71.4554         0.019276   
     91. D(O   9,P   6,O   5,C   4)    -77.1611         0.013324   
     92. D(O   8,P   6,O   5,C   4)    177.2547         0.013324   
     93. D(O   7,P   6,O   5,C   4)     53.3607         0.013324   
     94. D(H  19,O   8,P   6,O   7)     23.5683         0.013422   
     95. D(H  19,O   8,P   6,O   5)   -103.5176         0.013422   
     96. D(H  19,O   8,P   6,O   9)    147.5437         0.013422   
     97. D(H  20,O   9,P   6,O   8)     41.6337         0.013803   
     98. D(H  20,O   9,P   6,O   7)    162.7263         0.013803   
     99. D(H  20,O   9,P   6,O   5)    -66.2446         0.013803   
    100. D(O  11,C  10,C   3,H  16)    -48.9219         0.011361   
    101. D(O  11,C  10,C   3,C   4)     69.6956         0.011361   
    102. D(O  11,C  10,C   3,O   2)   -168.2647         0.011361   
    103. D(C  12,C  10,C   3,C   4)   -170.4761         0.011361   
    104. D(C  12,C  10,C   3,O   2)    -48.4365         0.011361   
    105. D(H  21,C  10,C   3,H  16)   -168.1050         0.011361   
    106. D(H  21,C  10,C   3,C   4)    -49.4875         0.011361   
    107. D(H  21,C  10,C   3,O   2)     72.5522         0.011361   
    108. D(C  12,C  10,C   3,H  16)     70.9064         0.011361   
    109. D(H  22,O  11,C  10,H  21)    -71.0300         0.018484   
    110. D(H  22,O  11,C  10,C  12)     47.5036         0.018484   
    111. D(H  22,O  11,C  10,C   3)    167.0939         0.018484   
    112. D(H  23,C  12,C  10,O  11)     57.1057         0.011848   
    113. D(H  23,C  12,C  10,C   3)    -63.4405         0.011848   
    114. D(C  14,C  12,C  10,H  21)    -62.2882         0.011848   
    115. D(C  14,C  12,C  10,O  11)   -179.3971         0.011848   
    116. D(C  14,C  12,C  10,C   3)     60.0568         0.011848   
    117. D(O  13,C  12,C  10,H  21)     57.9610         0.011848   
    118. D(O  13,C  12,C  10,O  11)    -59.1479         0.011848   
    119. D(H  23,C  12,C  10,H  21)    174.2146         0.011848   
    120. D(O  13,C  12,C  10,C   3)   -179.6940         0.011848   
    121. D(H  24,O  13,C  12,H  23)     71.2304         0.017314   
    122. D(H  24,O  13,C  12,C  14)    -49.7507         0.017314   
    123. D(H  24,O  13,C  12,C  10)   -169.3762         0.017314   
    124. D(O  15,C  14,C  12,H  23)    -56.0073         0.012322   
    125. D(O  15,C  14,C  12,O  13)     61.6425         0.012322   
    126. D(O  15,C  14,C  12,C  10)   -179.1796         0.012322   
    127. D(C   1,C  14,C  12,O  13)   -174.5517         0.012322   
    128. D(C   1,C  14,C  12,C  10)    -55.3738         0.012322   
    129. D(H  25,C  14,C   1,O   2)    -82.2776         0.011128   
    130. D(H  25,C  14,C   1,O   0)     92.1241         0.011128   
    131. D(C   1,C  14,C  12,H  23)     67.7985         0.012322   
    132. D(O  15,C  14,C   1,O   2)    160.8393         0.011128   
    133. D(O  15,C  14,C   1,O   0)    -24.7590         0.011128   
    134. D(C  12,C  14,C   1,O   2)     39.5197         0.011128   
    135. D(H  25,C  14,C  12,C  10)     64.6514         0.012322   
    136. D(C  12,C  14,C   1,O   0)   -146.0785         0.011128   
    137. D(H  25,C  14,C  12,H  23)   -172.1763         0.012322   
    138. D(H  25,C  14,C  12,O  13)    -54.5265         0.012322   
    139. D(H  26,O  15,C  14,H  25)    -80.9650         0.018053   
    140. D(H  26,O  15,C  14,C  12)    160.0270         0.018053   
    141. D(H  26,O  15,C  14,C   1)     36.7372         0.018053   
    -----------------------------------------------------------------

Number of atoms                         .... 27
Number of degrees of freedom            .... 141

         *************************************************************
         *                GEOMETRY OPTIMIZATION CYCLE   1            *
         *************************************************************
---------------------------------
CARTESIAN COORDINATES (ANGSTROEM)
---------------------------------
  O     0.555600    2.313600    2.605000
  C     0.051500    1.530000    1.803700
  O     0.704500    0.421000    1.394400
  C     0.005100   -0.742100    0.883100
  C     1.001400   -1.546400    0.041400
  O     1.411800   -0.777400   -1.084600
  P     2.684800   -1.319100   -1.883300
  O     2.639600   -2.733000   -2.343900
  O     2.836900   -0.299800   -3.102500
  O     3.942600   -0.912800   -0.995200
  C    -1.258900   -0.404600    0.095200
  O    -2.029600   -1.585600   -0.138900
  C    -2.089400    0.583800    0.899800
  O    -3.281000    0.891500    0.155500
  C    -1.278500    1.842300    1.135800
  O    -2.077500    2.744500    1.910500
  H    -0.255800   -1.359500    1.752400
  H     0.555900   -2.482200   -0.310900
  H     1.885100   -1.780900    0.645500
  H     2.506600   -0.717500   -3.920600
  H     4.046700    0.054700   -0.962200
  H    -1.022800    0.028300   -0.884300
  H    -2.902300   -1.267400   -0.451500
  H    -2.426700    0.138100    1.843700
  H    -3.688600    1.649300    0.624500
  H    -1.066000    2.352000    0.188800
  H    -1.451100    3.379100    2.316600

----------------------------
CARTESIAN COORDINATES (A.U.)
----------------------------
  NO LB    ZA    FRAG    MASS        X           Y           Z
   0 O   8.0000    0    15.999    1.049932    4.372070    4.922737
   1 C   6.0000    0    12.011    0.097321    2.891281    3.408499
   2 O   8.0000    0    15.999    1.331312    0.795575    2.635034
   3 C   6.0000    0    12.011    0.009638   -1.402366    1.668817
   4 C   6.0000    0    12.011    1.892372   -2.922272    0.078235
   5 O   8.0000    0    15.999    2.667915   -1.469073   -2.049597
   6 P  15.0000    0    30.974    5.073537   -2.492738   -3.558921
   7 O   8.0000    0    15.999    4.988121   -5.164622   -4.429329
   8 O   8.0000    0    15.999    5.360964   -0.566540   -5.862875
   9 O   8.0000    0    15.999    7.450434   -1.724942   -1.880655
  10 C   6.0000    0    12.011   -2.378976   -0.764583    0.179902
  11 O   8.0000    0    15.999   -3.835388   -2.996350   -0.262483
  12 C   6.0000    0    12.011   -3.948394    1.103222    1.700376
  13 O   8.0000    0    15.999   -6.200191    1.684691    0.293852
  14 C   6.0000    0    12.011   -2.416015    3.481442    2.146351
  15 O   8.0000    0    15.999   -3.925906    5.186353    3.610322
  16 H   1.0000    0     1.008   -0.483392   -2.569083    3.311556
  17 H   1.0000    0     1.008    1.050499   -4.690678   -0.587516
  18 H   1.0000    0     1.008    3.562323   -3.365413    1.219818
  19 H   1.0000    0     1.008    4.736788   -1.355879   -7.408860
  20 H   1.0000    0     1.008    7.647155    0.103368   -1.818294
  21 H   1.0000    0     1.008   -1.932812    0.053479   -1.671085
  22 H   1.0000    0     1.008   -5.484552   -2.395039   -0.853211
  23 H   1.0000    0     1.008   -4.585798    0.260971    3.484088
  24 H   1.0000    0     1.008   -6.970444    3.116725    1.180134
  25 H   1.0000    0     1.008   -2.014448    4.444636    0.356780
  26 H   1.0000    0     1.008   -2.742182    6.385574    4.377740

      -----------------------------------------------------------      
     |                   =====================                   |     
     |                           x T B                           |     
     |                   =====================                   |     
     |                         S. Grimme                         |     
     |          Mulliken Center for Theoretical Chemistry        |     
     |                    University of Bonn                     |     
      -----------------------------------------------------------      

   * xtb version 6.5.1 (579679a) compiled by 'ehlert@majestix' on 2022-07-11

   xtb is free software: you can redistribute it and/or modify it under
   the terms of the GNU Lesser General Public License as published by
   the Free Software Foundation, either version 3 of the License, or
   (at your option) any later version.
   
   xtb is distributed in the hope that it will be useful,
   but WITHOUT ANY WARRANTY; without even the implied warranty of
   MERCHANTABILITY or FITNESS FOR A PARTICULAR PURPOSE.  See the
   GNU Lesser General Public License for more details.
   
   Cite this work as:
   * C. Bannwarth, E. Caldeweyher, S. Ehlert, A. Hansen, P. Pracht,
     J. Seibert, S. Spicher, S. Grimme, WIREs Comput. Mol. Sci., 2020, 11,
     e01493. DOI: 10.1002/wcms.1493
   
   for GFN2-xTB:
   * C. Bannwarth, S. Ehlert and S. Grimme., J. Chem. Theory Comput., 2019,
     15, 1652-1671. DOI: 10.1021/acs.jctc.8b01176
   for GFN1-xTB:
   * S. Grimme, C. Bannwarth, P. Shushkov, J. Chem. Theory Comput., 2017,
     13, 1989-2009. DOI: 10.1021/acs.jctc.7b00118
   for GFN0-xTB:
   * P. Pracht, E. Caldeweyher, S. Ehlert, S. Grimme, ChemRxiv, 2019, preprint.
     DOI: 10.26434/chemrxiv.8326202.v1
   for GFN-FF:
   * S. Spicher and S. Grimme, Angew. Chem. Int. Ed., 2020, 59, 15665-15673.
     DOI: 10.1002/anie.202004239
   
   for ALPB and GBSA implicit solvation:
   * S. Ehlert, M. Stahn, S. Spicher, S. Grimme, J. Chem. Theory Comput.,
     2021, 17, 4250-4261. DOI: 10.1021/acs.jctc.1c00471
   
   for DFT-D4:
   * E. Caldeweyher, C. Bannwarth and S. Grimme, J. Chem. Phys., 2017,
     147, 034112. DOI: 10.1063/1.4993215
   * E. Caldeweyher, S. Ehlert, A. Hansen, H. Neugebauer, S. Spicher,
     C. Bannwarth and S. Grimme, J. Chem. Phys., 2019, 150, 154122.
     DOI: 10.1063/1.5090222
   * E. Caldeweyher, J.-M. Mewes, S. Ehlert and S. Grimme, Phys. Chem. Chem. Phys.
     2020, 22, 8499-8512. DOI: 10.1039/D0CP00502A
   
   for sTDA-xTB:
   * S. Grimme and C. Bannwarth, J. Chem. Phys., 2016, 145, 054103.
     DOI: 10.1063/1.4959605
   
   in the mass-spec context:
   * V. Asgeirsson, C. Bauer and S. Grimme, Chem. Sci., 2017, 8, 4879.
     DOI: 10.1039/c7sc00601b
   * J. Koopman and S. Grimme, ACS Omega 2019, 4, 12, 15120-15133.
     DOI: 10.1021/acsomega.9b02011
   
   for metadynamics refer to:
   * S. Grimme, J. Chem. Theory Comput., 2019, 155, 2847-2862
     DOI: 10.1021/acs.jctc.9b00143
   
   for SPH calculations refer to:
   * S. Spicher and S. Grimme, J. Chem. Theory Comput., 2021, 17, 1701-1714
     DOI: 10.1021/acs.jctc.0c01306
   
   with help from (in alphabetical order)
   P. Atkinson, C. Bannwarth, F. Bohle, G. Brandenburg, E. Caldeweyher
   M. Checinski, S. Dohm, S. Ehlert, S. Ehrlich, I. Gerasimov, C. Hölzer
   A. Katbashev, J. Koopman, C. Lavigne, S. Lehtola, F. März, M. Müller,
   F. Musil, H. Neugebauer, J. Pisarek, C. Plett, P. Pracht, F. Pultar,
   J. Seibert, P. Shushkov, S. Spicher, M. Stahn, M. Steiner, T. Strunk,
   J. Stückrath, T. Rose, and J. Unsleber
   
 * started run on 2023/12/07 at 01:32:00.014     

           -------------------------------------------------
          |                Calculation Setup                |
           -------------------------------------------------

          program call               : otool_xtb /tmp/C01236_XTB.xyz --grad -c 0 -u 0 -P 1 --namespace /tmp/C01236 --input /tmp/C01236_XTB.input.tmp --acc 1.000000
          calculation namespace      : /tmp/C01236
          coordinate file            : /tmp/C01236_XTB.xyz
          omp threads                :                     1

   ID    Z sym.   atoms
    1    8 O      1, 3, 6, 8-10, 12, 14, 16
    2    6 C      2, 4, 5, 11, 13, 15
    3   15 P      7
    4    1 H      17-27

           -------------------------------------------------
          |                 G F N 2 - x T B                 |
           -------------------------------------------------

        Reference                      10.1021/acs.jctc.8b01176
      * Hamiltonian:
        H0-scaling (s, p, d)           1.850000    2.230000    2.230000
        zeta-weighting                 0.500000
      * Dispersion:
        s8                             2.700000
        a1                             0.520000
        a2                             5.000000
        s9                             5.000000
      * Repulsion:
        kExp                           1.500000    1.000000
        rExp                           1.000000
      * Coulomb:
        alpha                          2.000000
        third order                    shell-resolved
        anisotropic                    true
        a3                             3.000000
        a5                             4.000000
        cn-shift                       1.200000
        cn-exp                         4.000000
        max-rad                        5.000000


          ...................................................
          :                      SETUP                      :
          :.................................................:
          :  # basis functions                  81          :
          :  # atomic orbitals                  80          :
          :  # shells                           44          :
          :  # electrons                        94          :
          :  max. iterations                   250          :
          :  Hamiltonian                  GFN2-xTB          :
          :  restarted?                      false          :
          :  GBSA solvation                  false          :
          :  PC potential                    false          :
          :  electronic temp.          300.0000000     K    :
          :  accuracy                    1.0000000          :
          :  -> integral cutoff          0.2500000E+02      :
          :  -> integral neglect         0.1000000E-07      :
          :  -> SCF convergence          0.1000000E-05 Eh   :
          :  -> wf. convergence          0.1000000E-03 e    :
          :  Broyden damping             0.4000000          :
          ...................................................

 iter      E             dE          RMSdq      gap      omega  full diag
   1    -57.9677117 -0.579677E+02  0.671E+00    5.04       0.0  T
   2    -58.0591025 -0.913907E-01  0.384E+00    3.96       1.0  T
   3    -58.0645693 -0.546685E-02  0.136E+00    4.40       1.0  T
   4    -58.0793298 -0.147605E-01  0.521E-01    4.05       1.0  T
   5    -58.0803629 -0.103311E-02  0.207E-01    4.28       1.0  T
   6    -58.0805134 -0.150496E-03  0.761E-02    4.24       1.0  T
   7    -58.0805245 -0.110942E-04  0.292E-02    4.25       1.0  T
   8    -58.0805276 -0.305174E-05  0.104E-02    4.25       1.8  T
   9    -58.0805279 -0.265897E-06  0.385E-03    4.25       5.0  T
  10    -58.0805279 -0.729210E-07  0.129E-03    4.25      14.9  T
  11    -58.0805279 -0.480497E-08  0.468E-04    4.25      41.1  T
  12    -58.0805279 -0.846732E-09  0.128E-04    4.25     150.7  T

   *** convergence criteria satisfied after 12 iterations ***

         #    Occupation            Energy/Eh            Energy/eV
      -------------------------------------------------------------
         1        2.0000           -0.7746097             -21.0782
       ...           ...                  ...                  ...
        41        2.0000           -0.4731195             -12.8742
        42        2.0000           -0.4638840             -12.6229
        43        2.0000           -0.4483023             -12.1989
        44        2.0000           -0.4432615             -12.0618
        45        2.0000           -0.4426111             -12.0441
        46        2.0000           -0.4406937             -11.9919
        47        2.0000           -0.4381583             -11.9229 (HOMO)
        48                         -0.2821074              -7.6765 (LUMO)
        49                         -0.0966254              -2.6293
        50                         -0.0770926              -2.0978
        51                         -0.0734618              -1.9990
        52                         -0.0341372              -0.9289
       ...                                ...                  ...
        80                          1.1959177              32.5426
      -------------------------------------------------------------
                  HL-Gap            0.1560509 Eh            4.2464 eV
             Fermi-level           -0.3601329 Eh           -9.7997 eV

 SCC (total)                   0 d,  0 h,  0 min,  0.034 sec
 SCC setup                      ...        0 min,  0.000 sec (  0.537%)
 Dispersion                     ...        0 min,  0.000 sec (  0.616%)
 classical contributions        ...        0 min,  0.000 sec (  0.167%)
 integral evaluation            ...        0 min,  0.005 sec ( 14.661%)
 iterations                     ...        0 min,  0.013 sec ( 39.311%)
 molecular gradient             ...        0 min,  0.015 sec ( 44.216%)
 printout                       ...        0 min,  0.000 sec (  0.445%)

         :::::::::::::::::::::::::::::::::::::::::::::::::::::
         ::                     SUMMARY                     ::
         :::::::::::::::::::::::::::::::::::::::::::::::::::::
         :: total energy             -57.716792179805 Eh    ::
         :: gradient norm              0.101049327248 Eh/a0 ::
         :: HOMO-LUMO gap              4.246361873141 eV    ::
         ::.................................................::
         :: SCC energy               -58.080527932142 Eh    ::
         :: -> isotropic ES            0.218786531118 Eh    ::
         :: -> anisotropic ES         -0.005854232982 Eh    ::
         :: -> anisotropic XC         -0.006089929663 Eh    ::
         :: -> dispersion             -0.024206676184 Eh    ::
         :: repulsion energy           0.363517236313 Eh    ::
         :: add. restraining           0.000000000000 Eh    ::
         :: total charge              -0.000000000000 e     ::
         :::::::::::::::::::::::::::::::::::::::::::::::::::::


Property printout bound to 'properties.out'

           -------------------------------------------------
          | TOTAL ENERGY              -57.716792179805 Eh   |
          | GRADIENT NORM               0.101049327248 Eh/α |
          | HOMO-LUMO GAP               4.246361873141 eV   |
           -------------------------------------------------

------------------------------------------------------------------------
 * finished run on 2023/12/07 at 01:32:00.060     
------------------------------------------------------------------------
 total:
 * wall-time:     0 d,  0 h,  0 min,  0.046 sec
 *  cpu-time:     0 d,  0 h,  0 min,  0.044 sec
 * ratio c/w:     0.966 speedup
 SCF:
 * wall-time:     0 d,  0 h,  0 min,  0.034 sec
 *  cpu-time:     0 d,  0 h,  0 min,  0.032 sec
 * ratio c/w:     0.934 speedup


-------------------------   --------------------
FINAL SINGLE POINT ENERGY       -57.716792179800
-------------------------   --------------------

------------------------------------------------------------------------------
                         ORCA GEOMETRY RELAXATION STEP
------------------------------------------------------------------------------

Reading the OPT-File                    .... done
Getting information on internals        .... done
Copying old internal coords+grads       .... done
Making the new internal coordinates     .... (new redundants).... done
Validating the new internal coordinates .... (new redundants).... done
Calculating the B-matrix                .... done
Calculating the G,G- and P matrices     .... done
Transforming gradient to internals      .... done
Projecting the internal gradient        .... done
Number of atoms                         ....  27
Number of internal coordinates          .... 141
Current Energy                          ....   -57.716792180 Eh
Current gradient norm                   ....     0.101049327 Eh/bohr
Maximum allowed component of the step   ....  0.300
Current trust radius                    ....  0.300
Evaluating the initial hessian          ....  (Almloef) done
Projecting the Hessian                  .... done
Forming the augmented Hessian           .... done
Diagonalizing the augmented Hessian     .... done
Last element of RFO vector              ....  0.977413104
Lowest eigenvalues of augmented Hessian:
 -0.010929453  0.010974266  0.013353403  0.013435442  0.013829441
Length of the computed step             ....  0.216221472
The final length of the internal step   ....  0.216221472
Converting the step to cartesian space:
 Initial RMS(Int)=    0.0182091328
Transforming coordinates:
 Iter   0:  RMS(Cart)=    0.0608098438 RMS(Int)=    0.5270778298
 Iter   1:  RMS(Cart)=    0.0008946818 RMS(Int)=    0.0005001948
 Iter   2:  RMS(Cart)=    0.0000323317 RMS(Int)=    0.0000166152
 Iter   3:  RMS(Cart)=    0.0000015794 RMS(Int)=    0.0000010418
 Iter   4:  RMS(Cart)=    0.0000000705 RMS(Int)=    0.0000000489
done
Storing new coordinates                 .... done

                                .--------------------.
          ----------------------|Geometry convergence|-------------------------
          Item                value                   Tolerance       Converged
          ---------------------------------------------------------------------
          RMS gradient        0.0065236000            0.0001000000      NO
          MAX gradient        0.0441311198            0.0003000000      NO
          RMS step            0.0182091328            0.0020000000      NO
          MAX step            0.0515575164            0.0040000000      NO
          ........................................................
          Max(Bonds)      0.0228      Max(Angles)    1.77
          Max(Dihed)        2.95      Max(Improp)    0.00
          ---------------------------------------------------------------------

The optimization has not yet converged - more geometry cycles are needed


    ---------------------------------------------------------------------------
                         Redundant Internal Coordinates
                            (Angstroem and degrees)

        Definition                    Value    dE/dq     Step     New-Value
    ----------------------------------------------------------------------------
     1. B(C   1,O   0)                1.2289  0.044131 -0.0228    1.2061   
     2. B(O   2,C   1)                1.3505  0.015779 -0.0136    1.3369   
     3. B(C   3,O   2)                1.4503  0.011447 -0.0147    1.4356   
     4. B(C   4,C   3)                1.5323  0.006365 -0.0088    1.5235   
     5. B(O   5,C   4)                1.4240  0.004155 -0.0044    1.4196   
     6. B(P   6,O   5)                1.5975 -0.002503  0.0015    1.5990   
     7. B(O   7,P   6)                1.4877  0.034572 -0.0138    1.4739   
     8. B(O   8,P   6)                1.5964  0.001931 -0.0011    1.5953   
     9. B(O   9,P   6)                1.5924  0.002820 -0.0016    1.5908   
    10. B(C  10,C   3)                1.5272  0.002889 -0.0045    1.5228   
    11. B(O  11,C  10)                1.4295  0.014236 -0.0152    1.4143   
    12. B(C  12,C  10)                1.5212 -0.001664  0.0038    1.5250   
    13. B(O  13,C  12)                1.4383  0.013109 -0.0145    1.4238   
    14. B(C  14,C  12)                1.5156 -0.001412  0.0033    1.5190   
    15. B(C  14,C   1)                1.5207  0.002361 -0.0027    1.5180   
    16. B(O  15,C  14)                1.4327  0.013396 -0.0145    1.4182   
    17. B(H  16,C   3)                1.0977 -0.000134  0.0002    1.0979   
    18. B(H  17,C   4)                1.0947  0.001493 -0.0022    1.0925   
    19. B(H  18,C   4)                1.0958  0.000554 -0.0008    1.0950   
    20. B(H  19,O   8)                0.9761  0.016836 -0.0178    0.9584   
    21. B(H  20,O   9)                0.9736  0.012993 -0.0136    0.9600   
    22. B(H  21,C  10)                1.0966 -0.001598  0.0023    1.0989   
    23. B(H  22,O  11)                0.9801  0.010895 -0.0117    0.9684   
    24. B(H  23,C  12)                1.0970 -0.001474  0.0022    1.0991   
    25. B(H  24,O  13)                0.9800  0.011875 -0.0127    0.9673   
    26. B(H  25,C  14)                1.0962 -0.004390  0.0064    1.1026   
    27. B(H  26,O  15)                0.9798  0.009230 -0.0099    0.9699   
    28. A(O   0,C   1,C  14)          120.94 -0.001074   -0.07    120.88   
    29. A(O   2,C   1,C  14)          117.29 -0.002466    0.71    117.99   
    30. A(O   0,C   1,O   2)          121.53  0.003552   -0.60    120.93   
    31. A(C   1,O   2,C   3)          122.16 -0.003438    0.48    122.64   
    32. A(C  10,C   3,H  16)          109.64  0.001787   -0.27    109.37   
    33. A(C   4,C   3,C  10)          111.76 -0.000586   -0.22    111.54   
    34. A(O   2,C   3,C   4)          107.52  0.002475   -0.69    106.83   
    35. A(O   2,C   3,C  10)          113.81 -0.000825    0.21    114.02   
    36. A(O   2,C   3,H  16)          106.65 -0.001224    0.45    107.09   
    37. A(C   4,C   3,H  16)          107.12 -0.001739    0.59    107.71   
    38. A(C   3,C   4,H  17)          111.15  0.002340   -0.74    110.42   
    39. A(O   5,C   4,H  18)          108.61 -0.002906    0.72    109.32   
    40. A(H  17,C   4,H  18)          108.82 -0.000746    0.41    109.24   
    41. A(C   3,C   4,O   5)          109.77  0.005338   -0.92    108.85   
    42. A(C   3,C   4,H  18)          109.50 -0.000890    0.18    109.68   
    43. A(O   5,C   4,H  17)          108.93 -0.003321    0.40    109.33   
    44. A(C   4,O   5,P   6)          116.23  0.004549   -0.54    115.68   
    45. A(O   7,P   6,O   9)          116.05  0.003148   -0.24    115.81   
    46. A(O   5,P   6,O   8)          103.96  0.010508   -1.31    102.65   
    47. A(O   5,P   6,O   7)          116.93  0.003486   -0.88    116.04   
    48. A(O   8,P   6,O   9)          100.82 -0.008445    1.44    102.26   
    49. A(O   7,P   6,O   8)          111.92 -0.009670    1.59    113.51   
    50. A(O   5,P   6,O   9)          105.31  0.000373   -0.43    104.88   
    51. A(P   6,O   8,H  19)          109.55  0.002134   -0.29    109.26   
    52. A(P   6,O   9,H  20)          110.91 -0.000325    0.04    110.95   
    53. A(C   3,C  10,C  12)          108.82  0.000699    0.22    109.04   
    54. A(C   3,C  10,O  11)          110.37  0.005694   -1.77    108.60   
    55. A(C  12,C  10,H  21)          109.48  0.000523    0.02    109.50   
    56. A(O  11,C  10,H  21)          107.21 -0.002870    1.26    108.47   
    57. A(C   3,C  10,H  21)          111.71  0.000473   -0.67    111.03   
    58. A(O  11,C  10,C  12)          109.21 -0.004718    1.00    110.21   
    59. A(C  10,O  11,H  22)          105.31 -0.001719    0.27    105.58   
    60. A(O  13,C  12,C  14)          110.26 -0.003370    0.62    110.87   
    61. A(C  14,C  12,H  23)          111.59  0.001524   -0.71    110.87   
    62. A(O  13,C  12,H  23)          106.11 -0.002075    1.38    107.49   
    63. A(C  10,C  12,C  14)          109.26  0.003812   -0.60    108.65   
    64. A(C  10,C  12,H  23)          111.04 -0.000222   -0.32    110.72   
    65. A(C  10,C  12,O  13)          108.52  0.000044   -0.29    108.23   
    66. A(C  12,O  13,H  24)          105.21 -0.003915    0.62    105.83   
    67. A(C  12,C  14,O  15)          107.98 -0.003475    0.72    108.70   
    68. A(C   1,C  14,O  15)          112.31  0.002983   -1.01    111.30   
    69. A(O  15,C  14,H  25)          106.41 -0.003231    1.46    107.86   
    70. A(C  12,C  14,H  25)          110.81  0.002046   -0.74    110.07   
    71. A(C   1,C  14,C  12)          111.46  0.001148    0.12    111.58   
    72. A(C   1,C  14,H  25)          107.78  0.000429   -0.51    107.27   
    73. A(C  14,O  15,H  26)          105.99 -0.003937    0.63    106.61   
    74. D(C   3,O   2,C   1,C  14)    -29.34 -0.002070    2.00    -27.34   
    75. D(C   3,O   2,C   1,O   0)    156.30 -0.002132    1.50    157.79   
    76. D(C   4,C   3,O   2,C   1)    158.60  0.002038   -1.99    156.61   
    77. D(H  16,C   3,O   2,C   1)    -86.78  0.000617   -1.42    -88.20   
    78. D(C  10,C   3,O   2,C   1)     34.25  0.001500   -1.32     32.92   
    79. D(O   5,C   4,C   3,C  10)     61.71  0.000588   -0.80     60.91   
    80. D(H  18,C   4,C   3,O   2)     55.27 -0.000607    0.01     55.28   
    81. D(H  18,C   4,C   3,H  16)    -59.03  0.000460   -0.46    -59.49   
    82. D(H  17,C   4,C   3,H  16)     61.24  0.000436   -0.30     60.94   
    83. D(H  17,C   4,C   3,C  10)    -58.87 -0.000299   -0.21    -59.09   
    84. D(O   5,C   4,C   3,H  16)   -178.18  0.001323   -0.89   -179.07   
    85. D(O   5,C   4,C   3,O   2)    -63.87  0.000256   -0.42    -64.29   
    86. D(H  17,C   4,C   3,O   2)    175.54 -0.000631    0.17    175.71   
    87. D(H  18,C   4,C   3,C  10)   -179.14 -0.000275   -0.37   -179.52   
    88. D(P   6,O   5,C   4,C   3)    166.62 -0.000992   -0.08    166.55   
    89. D(P   6,O   5,C   4,H  18)     46.93 -0.001312   -0.18     46.75   
    90. D(P   6,O   5,C   4,H  17)    -71.46  0.003132   -1.31    -72.77   
    91. D(O   9,P   6,O   5,C   4)    -77.16 -0.003706   -0.53    -77.69   
    92. D(O   8,P   6,O   5,C   4)    177.25  0.001654   -1.48    175.77   
    93. D(O   7,P   6,O   5,C   4)     53.36  0.003727   -1.95     51.41   
    94. D(H  19,O   8,P   6,O   7)     23.57  0.003680   -0.10     23.47   
    95. D(H  19,O   8,P   6,O   5)   -103.52 -0.001967    0.93   -102.59   
    96. D(H  19,O   8,P   6,O   9)    147.54 -0.002613    1.29    148.83   
    97. D(H  20,O   9,P   6,O   8)     41.63  0.007696   -0.19     41.45   
    98. D(H  20,O   9,P   6,O   7)    162.73 -0.008339    2.62    165.35   
    99. D(H  20,O   9,P   6,O   5)    -66.24 -0.000772    0.85    -65.40   
   100. D(O  11,C  10,C   3,H  16)    -48.92  0.000984    0.28    -48.64   
   101. D(O  11,C  10,C   3,C   4)     69.70 -0.000385    0.70     70.40   
   102. D(O  11,C  10,C   3,O   2)   -168.26  0.001825   -0.23   -168.49   
   103. D(C  12,C  10,C   3,C   4)   -170.48 -0.002287    1.00   -169.48   
   104. D(C  12,C  10,C   3,O   2)    -48.44 -0.000077    0.06    -48.37   
   105. D(H  21,C  10,C   3,H  16)   -168.11  0.000505    0.32   -167.79   
   106. D(H  21,C  10,C   3,C   4)    -49.49 -0.000864    0.74    -48.75   
   107. D(H  21,C  10,C   3,O   2)     72.55  0.001346   -0.20     72.36   
   108. D(C  12,C  10,C   3,H  16)     70.91 -0.000918    0.58     71.48   
   109. D(H  22,O  11,C  10,H  21)    -71.03  0.002023   -1.01    -72.04   
   110. D(H  22,O  11,C  10,C  12)     47.50 -0.001534    0.26     47.77   
   111. D(H  22,O  11,C  10,C   3)    167.09 -0.000140    0.07    167.17   
   112. D(H  23,C  12,C  10,O  11)     57.11  0.001332   -0.08     57.02   
   113. D(H  23,C  12,C  10,C   3)    -63.44 -0.003190    1.34    -62.10   
   114. D(C  14,C  12,C  10,H  21)    -62.29 -0.000126    0.48    -61.81   
   115. D(C  14,C  12,C  10,O  11)   -179.40  0.005750   -1.62   -181.02   
   116. D(C  14,C  12,C  10,C   3)     60.06  0.001229   -0.20     59.86   
   117. D(O  13,C  12,C  10,H  21)     57.96 -0.001934    0.70     58.66   
   118. D(O  13,C  12,C  10,O  11)    -59.15  0.003942   -1.40    -60.55   
   119. D(H  23,C  12,C  10,H  21)    174.21 -0.004545    2.02    176.23   
   120. D(O  13,C  12,C  10,C   3)   -179.69 -0.000579    0.02   -179.67   
   121. D(H  24,O  13,C  12,H  23)     71.23 -0.000119    0.32     71.55   
   122. D(H  24,O  13,C  12,C  14)    -49.75  0.001182    0.00    -49.75   
   123. D(H  24,O  13,C  12,C  10)   -169.38 -0.001492    0.55   -168.83   
   124. D(O  15,C  14,C  12,H  23)    -56.01 -0.000813    0.41    -55.60   
   125. D(O  15,C  14,C  12,O  13)     61.64 -0.004598    2.07     63.72   
   126. D(O  15,C  14,C  12,C  10)   -179.18 -0.004233    1.72   -177.46   
   127. D(C   1,C  14,C  12,O  13)   -174.55 -0.002495    1.38   -173.17   
   128. D(C   1,C  14,C  12,C  10)    -55.37 -0.002129    1.03    -54.34   
   129. D(H  25,C  14,C   1,O   2)    -82.28 -0.002251   -0.37    -82.65   
   130. D(H  25,C  14,C   1,O   0)     92.12 -0.001912    0.09     92.21   
   131. D(C   1,C  14,C  12,H  23)     67.80  0.001291   -0.28     67.52   
   132. D(O  15,C  14,C   1,O   2)    160.84 -0.000266   -1.26    159.58   
   133. D(O  15,C  14,C   1,O   0)    -24.76  0.000073   -0.80    -25.56   
   134. D(C  12,C  14,C   1,O   2)     39.52  0.001285   -1.56     37.96   
   135. D(H  25,C  14,C  12,C  10)     64.65  0.000555   -0.04     64.61   
   136. D(C  12,C  14,C   1,O   0)   -146.08  0.001623   -1.10   -147.18   
   137. D(H  25,C  14,C  12,H  23)   -172.18  0.003976   -1.35   -173.53   
   138. D(H  25,C  14,C  12,O  13)    -54.53  0.000190    0.31    -54.22   
   139. D(H  26,O  15,C  14,H  25)    -80.97  0.001019   -2.68    -83.64   
   140. D(H  26,O  15,C  14,C  12)    160.03  0.002144   -2.95    157.07   
   141. D(H  26,O  15,C  14,C   1)     36.74  0.001177   -2.95     33.79   
    ----------------------------------------------------------------------------

         *************************************************************
         *                GEOMETRY OPTIMIZATION CYCLE   2            *
         *************************************************************
---------------------------------
CARTESIAN COORDINATES (ANGSTROEM)
---------------------------------
  O     0.587937    2.277653    2.542210
  C     0.069697    1.506429    1.773287
  O     0.694885    0.385967    1.397864
  C    -0.006578   -0.758131    0.887981
  C     0.990503   -1.550301    0.051752
  O     1.383953   -0.762093   -1.061445
  P     2.664979   -1.285174   -1.862702
  O     2.633384   -2.697712   -2.282390
  O     2.756257   -0.261220   -3.082575
  O     3.909142   -0.856793   -0.968744
  C    -1.256579   -0.413450    0.089548
  O    -1.995153   -1.599977   -0.127054
  C    -2.090676    0.589430    0.879515
  O    -3.257187    0.893524    0.121915
  C    -1.256747    1.837258    1.113441
  O    -2.010007    2.747071    1.898341
  H    -0.284834   -1.377159    1.750967
  H     0.536762   -2.478029   -0.304635
  H     1.871758   -1.788790    0.656398
  H     2.416285   -0.681278   -3.874044
  H     3.987022    0.099050   -0.924261
  H    -0.994596    0.016367   -0.887340
  H    -2.862615   -1.311747   -0.446838
  H    -2.420481    0.154571    1.833573
  H    -3.665291    1.653581    0.559359
  H    -1.030731    2.326905    0.151672
  H    -1.371189    3.333948    2.332204

----------------------------
CARTESIAN COORDINATES (A.U.)
----------------------------
  NO LB    ZA    FRAG    MASS        X           Y           Z
   0 O   8.0000    0    15.999    1.111039    4.304140    4.804080
   1 C   6.0000    0    12.011    0.131709    2.846738    3.351028
   2 O   8.0000    0    15.999    1.313143    0.729372    2.641581
   3 C   6.0000    0    12.011   -0.012432   -1.432660    1.678040
   4 C   6.0000    0    12.011    1.871780   -2.929644    0.097798
   5 O   8.0000    0    15.999    2.615292   -1.440148   -2.005840
   6 P  15.0000    0    30.974    5.036080   -2.428626   -3.519997
   7 O   8.0000    0    15.999    4.976375   -5.097937   -4.313092
   8 O   8.0000    0    15.999    5.208571   -0.493635   -5.825222
   9 O   8.0000    0    15.999    7.387208   -1.619103   -1.830662
  10 C   6.0000    0    12.011   -2.374589   -0.781307    0.169222
  11 O   8.0000    0    15.999   -3.770293   -3.023518   -0.240097
  12 C   6.0000    0    12.011   -3.950806    1.113861    1.662043
  13 O   8.0000    0    15.999   -6.155191    1.688515    0.230385
  14 C   6.0000    0    12.011   -2.374908    3.471914    2.104098
  15 O   8.0000    0    15.999   -3.798362    5.191212    3.587345
  16 H   1.0000    0     1.008   -0.538257   -2.602453    3.308848
  17 H   1.0000    0     1.008    1.014333   -4.682795   -0.575677
  18 H   1.0000    0     1.008    3.537110   -3.380324    1.240413
  19 H   1.0000    0     1.008    4.566116   -1.287430   -7.320882
  20 H   1.0000    0     1.008    7.534379    0.187178   -1.746600
  21 H   1.0000    0     1.008   -1.879515    0.030929   -1.676830
  22 H   1.0000    0     1.008   -5.409558   -2.478842   -0.844402
  23 H   1.0000    0     1.008   -4.574046    0.292097    3.464951
  24 H   1.0000    0     1.008   -6.926396    3.124815    1.057036
  25 H   1.0000    0     1.008   -1.947800    4.397214    0.286619
  26 H   1.0000    0     1.008   -2.591171    6.300248    4.407226

      -----------------------------------------------------------      
     |                   =====================                   |     
     |                           x T B                           |     
     |                   =====================                   |     
     |                         S. Grimme                         |     
     |          Mulliken Center for Theoretical Chemistry        |     
     |                    University of Bonn                     |     
      -----------------------------------------------------------      

   * xtb version 6.5.1 (579679a) compiled by 'ehlert@majestix' on 2022-07-11

   xtb is free software: you can redistribute it and/or modify it under
   the terms of the GNU Lesser General Public License as published by
   the Free Software Foundation, either version 3 of the License, or
   (at your option) any later version.
   
   xtb is distributed in the hope that it will be useful,
   but WITHOUT ANY WARRANTY; without even the implied warranty of
   MERCHANTABILITY or FITNESS FOR A PARTICULAR PURPOSE.  See the
   GNU Lesser General Public License for more details.
   
   Cite this work as:
   * C. Bannwarth, E. Caldeweyher, S. Ehlert, A. Hansen, P. Pracht,
     J. Seibert, S. Spicher, S. Grimme, WIREs Comput. Mol. Sci., 2020, 11,
     e01493. DOI: 10.1002/wcms.1493
   
   for GFN2-xTB:
   * C. Bannwarth, S. Ehlert and S. Grimme., J. Chem. Theory Comput., 2019,
     15, 1652-1671. DOI: 10.1021/acs.jctc.8b01176
   for GFN1-xTB:
   * S. Grimme, C. Bannwarth, P. Shushkov, J. Chem. Theory Comput., 2017,
     13, 1989-2009. DOI: 10.1021/acs.jctc.7b00118
   for GFN0-xTB:
   * P. Pracht, E. Caldeweyher, S. Ehlert, S. Grimme, ChemRxiv, 2019, preprint.
     DOI: 10.26434/chemrxiv.8326202.v1
   for GFN-FF:
   * S. Spicher and S. Grimme, Angew. Chem. Int. Ed., 2020, 59, 15665-15673.
     DOI: 10.1002/anie.202004239
   
   for ALPB and GBSA implicit solvation:
   * S. Ehlert, M. Stahn, S. Spicher, S. Grimme, J. Chem. Theory Comput.,
     2021, 17, 4250-4261. DOI: 10.1021/acs.jctc.1c00471
   
   for DFT-D4:
   * E. Caldeweyher, C. Bannwarth and S. Grimme, J. Chem. Phys., 2017,
     147, 034112. DOI: 10.1063/1.4993215
   * E. Caldeweyher, S. Ehlert, A. Hansen, H. Neugebauer, S. Spicher,
     C. Bannwarth and S. Grimme, J. Chem. Phys., 2019, 150, 154122.
     DOI: 10.1063/1.5090222
   * E. Caldeweyher, J.-M. Mewes, S. Ehlert and S. Grimme, Phys. Chem. Chem. Phys.
     2020, 22, 8499-8512. DOI: 10.1039/D0CP00502A
   
   for sTDA-xTB:
   * S. Grimme and C. Bannwarth, J. Chem. Phys., 2016, 145, 054103.
     DOI: 10.1063/1.4959605
   
   in the mass-spec context:
   * V. Asgeirsson, C. Bauer and S. Grimme, Chem. Sci., 2017, 8, 4879.
     DOI: 10.1039/c7sc00601b
   * J. Koopman and S. Grimme, ACS Omega 2019, 4, 12, 15120-15133.
     DOI: 10.1021/acsomega.9b02011
   
   for metadynamics refer to:
   * S. Grimme, J. Chem. Theory Comput., 2019, 155, 2847-2862
     DOI: 10.1021/acs.jctc.9b00143
   
   for SPH calculations refer to:
   * S. Spicher and S. Grimme, J. Chem. Theory Comput., 2021, 17, 1701-1714
     DOI: 10.1021/acs.jctc.0c01306
   
   with help from (in alphabetical order)
   P. Atkinson, C. Bannwarth, F. Bohle, G. Brandenburg, E. Caldeweyher
   M. Checinski, S. Dohm, S. Ehlert, S. Ehrlich, I. Gerasimov, C. Hölzer
   A. Katbashev, J. Koopman, C. Lavigne, S. Lehtola, F. März, M. Müller,
   F. Musil, H. Neugebauer, J. Pisarek, C. Plett, P. Pracht, F. Pultar,
   J. Seibert, P. Shushkov, S. Spicher, M. Stahn, M. Steiner, T. Strunk,
   J. Stückrath, T. Rose, and J. Unsleber
   
 * started run on 2023/12/07 at 01:32:00.152     

           -------------------------------------------------
          |                Calculation Setup                |
           -------------------------------------------------

          program call               : otool_xtb /tmp/C01236_XTB.xyz --grad -c 0 -u 0 -P 1 --namespace /tmp/C01236 --input /tmp/C01236_XTB.input.tmp --acc 1.000000
          calculation namespace      : /tmp/C01236
          coordinate file            : /tmp/C01236_XTB.xyz
          omp threads                :                     1

   ID    Z sym.   atoms
    1    8 O      1, 3, 6, 8-10, 12, 14, 16
    2    6 C      2, 4, 5, 11, 13, 15
    3   15 P      7
    4    1 H      17-27

           -------------------------------------------------
          |                 G F N 2 - x T B                 |
           -------------------------------------------------

        Reference                      10.1021/acs.jctc.8b01176
      * Hamiltonian:
        H0-scaling (s, p, d)           1.850000    2.230000    2.230000
        zeta-weighting                 0.500000
      * Dispersion:
        s8                             2.700000
        a1                             0.520000
        a2                             5.000000
        s9                             5.000000
      * Repulsion:
        kExp                           1.500000    1.000000
        rExp                           1.000000
      * Coulomb:
        alpha                          2.000000
        third order                    shell-resolved
        anisotropic                    true
        a3                             3.000000
        a5                             4.000000
        cn-shift                       1.200000
        cn-exp                         4.000000
        max-rad                        5.000000

q/qsh data taken from xtbrestart
CAMM data taken from xtbrestart

          ...................................................
          :                      SETUP                      :
          :.................................................:
          :  # basis functions                  81          :
          :  # atomic orbitals                  80          :
          :  # shells                           44          :
          :  # electrons                        94          :
          :  max. iterations                   250          :
          :  Hamiltonian                  GFN2-xTB          :
          :  restarted?                       true          :
          :  GBSA solvation                  false          :
          :  PC potential                    false          :
          :  electronic temp.          300.0000000     K    :
          :  accuracy                    1.0000000          :
          :  -> integral cutoff          0.2500000E+02      :
          :  -> integral neglect         0.1000000E-07      :
          :  -> SCF convergence          0.1000000E-05 Eh   :
          :  -> wf. convergence          0.1000000E-03 e    :
          :  Broyden damping             0.4000000          :
          ...................................................

 iter      E             dE          RMSdq      gap      omega  full diag
   1    -58.1112579 -0.581113E+02  0.249E-01    4.51       0.0  T
   2    -58.1113234 -0.654820E-04  0.145E-01    4.46       1.0  T
   3    -58.1113139  0.952870E-05  0.480E-02    4.48       1.0  T
   4    -58.1113357 -0.217840E-04  0.942E-03    4.47       2.0  T
   5    -58.1113359 -0.246938E-06  0.461E-03    4.47       4.2  T
   6    -58.1113360 -0.716202E-07  0.154E-03    4.47      12.5  T
   7    -58.1113360 -0.362998E-08  0.710E-04    4.47      27.1  T
   8    -58.1113360 -0.957129E-09  0.151E-04    4.47     127.6  T

   *** convergence criteria satisfied after 8 iterations ***

         #    Occupation            Energy/Eh            Energy/eV
      -------------------------------------------------------------
         1        2.0000           -0.7771621             -21.1477
       ...           ...                  ...                  ...
        41        2.0000           -0.4725238             -12.8580
        42        2.0000           -0.4622500             -12.5785
        43        2.0000           -0.4463489             -12.1458
        44        2.0000           -0.4460355             -12.1372
        45        2.0000           -0.4428633             -12.0509
        46        2.0000           -0.4417486             -12.0206
        47        2.0000           -0.4363269             -11.8731 (HOMO)
        48                         -0.2720356              -7.4025 (LUMO)
        49                         -0.0826494              -2.2490
        50                         -0.0629405              -1.7127
        51                         -0.0560894              -1.5263
        52                         -0.0203098              -0.5527
       ...                                ...                  ...
        80                          1.2193356              33.1798
      -------------------------------------------------------------
                  HL-Gap            0.1642913 Eh            4.4706 eV
             Fermi-level           -0.3541813 Eh           -9.6378 eV

 SCC (total)                   0 d,  0 h,  0 min,  0.031 sec
 SCC setup                      ...        0 min,  0.000 sec (  0.607%)
 Dispersion                     ...        0 min,  0.000 sec (  0.705%)
 classical contributions        ...        0 min,  0.000 sec (  0.146%)
 integral evaluation            ...        0 min,  0.005 sec ( 17.379%)
 iterations                     ...        0 min,  0.010 sec ( 31.351%)
 molecular gradient             ...        0 min,  0.015 sec ( 49.192%)
 printout                       ...        0 min,  0.000 sec (  0.558%)

         :::::::::::::::::::::::::::::::::::::::::::::::::::::
         ::                     SUMMARY                     ::
         :::::::::::::::::::::::::::::::::::::::::::::::::::::
         :: total energy             -57.724533430741 Eh    ::
         :: gradient norm              0.050356437880 Eh/a0 ::
         :: HOMO-LUMO gap              4.470594684367 eV    ::
         ::.................................................::
         :: SCC energy               -58.111335978069 Eh    ::
         :: -> isotropic ES            0.216031961499 Eh    ::
         :: -> anisotropic ES         -0.006278665779 Eh    ::
         :: -> anisotropic XC         -0.007263981305 Eh    ::
         :: -> dispersion             -0.024492981345 Eh    ::
         :: repulsion energy           0.386569895544 Eh    ::
         :: add. restraining           0.000000000000 Eh    ::
         :: total charge              -0.000000000000 e     ::
         :::::::::::::::::::::::::::::::::::::::::::::::::::::


Property printout bound to 'properties.out'

           -------------------------------------------------
          | TOTAL ENERGY              -57.724533430741 Eh   |
          | GRADIENT NORM               0.050356437880 Eh/α |
          | HOMO-LUMO GAP               4.470594684367 eV   |
           -------------------------------------------------

------------------------------------------------------------------------
 * finished run on 2023/12/07 at 01:32:00.195     
------------------------------------------------------------------------
 total:
 * wall-time:     0 d,  0 h,  0 min,  0.042 sec
 *  cpu-time:     0 d,  0 h,  0 min,  0.040 sec
 * ratio c/w:     0.941 speedup
 SCF:
 * wall-time:     0 d,  0 h,  0 min,  0.031 sec
 *  cpu-time:     0 d,  0 h,  0 min,  0.032 sec
 * ratio c/w:     1.034 speedup


-------------------------   --------------------
FINAL SINGLE POINT ENERGY       -57.724533430740
-------------------------   --------------------

------------------------------------------------------------------------------
                         ORCA GEOMETRY RELAXATION STEP
------------------------------------------------------------------------------

Reading the OPT-File                    .... done
Getting information on internals        .... done
Copying old internal coords+grads       .... done
Making the new internal coordinates     .... (new redundants).... done
Validating the new internal coordinates .... (new redundants).... done
Calculating the B-matrix                .... done
Calculating the G,G- and P matrices     .... done
Transforming gradient to internals      .... done
Projecting the internal gradient        .... done
Number of atoms                         ....  27
Number of internal coordinates          .... 141
Current Energy                          ....   -57.724533431 Eh
Current gradient norm                   ....     0.050356438 Eh/bohr
Maximum allowed component of the step   ....  0.300
Current trust radius                    ....  0.300
Updating the Hessian (BFGS)             .... done
Forming the augmented Hessian           .... done
Diagonalizing the augmented Hessian     .... done
Last element of RFO vector              ....  0.964488553
Lowest eigenvalues of augmented Hessian:
 -0.004908828  0.010972694  0.013342439  0.013428883  0.013824130
Length of the computed step             ....  0.273849439
The final length of the internal step   ....  0.273849439
Converting the step to cartesian space:
 Initial RMS(Int)=    0.0230622831
Transforming coordinates:
 Iter   0:  RMS(Cart)=    0.0599595534 RMS(Int)=    0.5282317874
 Iter   1:  RMS(Cart)=    0.0012637031 RMS(Int)=    0.0007329660
 Iter   2:  RMS(Cart)=    0.0000684022 RMS(Int)=    0.0000411633
 Iter   3:  RMS(Cart)=    0.0000044448 RMS(Int)=    0.0000030290
 Iter   4:  RMS(Cart)=    0.0000003029 RMS(Int)=    0.0000002170
 Iter   5:  RMS(Cart)=    0.0000000227 RMS(Int)=    0.0000000167
done
Storing new coordinates                 .... done

                                .--------------------.
          ----------------------|Geometry convergence|-------------------------
          Item                value                   Tolerance       Converged
          ---------------------------------------------------------------------
          Energy change      -0.0077412509            0.0000050000      NO
          RMS gradient        0.0027440372            0.0001000000      NO
          MAX gradient        0.0208381019            0.0003000000      NO
          RMS step            0.0230622831            0.0020000000      NO
          MAX step            0.0812335681            0.0040000000      NO
          ........................................................
          Max(Bonds)      0.0160      Max(Angles)    1.98
          Max(Dihed)        4.65      Max(Improp)    0.00
          ---------------------------------------------------------------------

The optimization has not yet converged - more geometry cycles are needed


    ---------------------------------------------------------------------------
                         Redundant Internal Coordinates
                            (Angstroem and degrees)

        Definition                    Value    dE/dq     Step     New-Value
    ----------------------------------------------------------------------------
     1. B(C   1,O   0)                1.2061  0.007931 -0.0105    1.1955   
     2. B(O   2,C   1)                1.3369  0.003590 -0.0074    1.3295   
     3. B(C   3,O   2)                1.4356  0.003379 -0.0095    1.4261   
     4. B(C   4,C   3)                1.5235 -0.000867  0.0007    1.5242   
     5. B(O   5,C   4)                1.4196  0.001438 -0.0032    1.4164   
     6. B(P   6,O   5)                1.5990 -0.004610  0.0048    1.6037   
     7. B(O   7,P   6)                1.4739  0.020838 -0.0160    1.4579   
     8. B(O   8,P   6)                1.5953  0.001516 -0.0017    1.5936   
     9. B(O   9,P   6)                1.5908  0.002374 -0.0026    1.5882   
    10. B(C  10,C   3)                1.5228 -0.001977  0.0033    1.5261   
    11. B(O  11,C  10)                1.4143  0.005503 -0.0122    1.4021   
    12. B(C  12,C  10)                1.5250 -0.001841  0.0054    1.5304   
    13. B(O  13,C  12)                1.4238  0.006522 -0.0142    1.4096   
    14. B(C  14,C  12)                1.5190 -0.002096  0.0058    1.5248   
    15. B(C  14,C   1)                1.5180 -0.002662  0.0059    1.5239   
    16. B(O  15,C  14)                1.4182  0.006232 -0.0135    1.4047   
    17. B(H  16,C   3)                1.0979 -0.000428  0.0011    1.0990   
    18. B(H  17,C   4)                1.0925 -0.000082 -0.0001    1.0924   
    19. B(H  18,C   4)                1.0950  0.000467 -0.0013    1.0938   
    20. B(H  19,O   8)                0.9584  0.002293 -0.0068    0.9516   
    21. B(H  20,O   9)                0.9600  0.001779 -0.0052    0.9548   
    22. B(H  21,C  10)                1.0989 -0.000589  0.0018    1.1007   
    23. B(H  22,O  11)                0.9684  0.001362 -0.0042    0.9642   
    24. B(H  23,C  12)                1.0991 -0.000806  0.0023    1.1014   
    25. B(H  24,O  13)                0.9673  0.001722 -0.0050    0.9622   
    26. B(H  25,C  14)                1.1026 -0.001559  0.0048    1.1074   
    27. B(H  26,O  15)                0.9699  0.000799 -0.0030    0.9670   
    28. A(O   0,C   1,C  14)          120.88  0.000135   -0.26    120.62   
    29. A(O   2,C   1,C  14)          117.98 -0.000212    0.66    118.65   
    30. A(O   0,C   1,O   2)          120.93  0.000070   -0.30    120.64   
    31. A(C   1,O   2,C   3)          122.63 -0.001927    0.83    123.45   
    32. A(C  10,C   3,H  16)          109.37  0.001491   -0.78    108.60   
    33. A(C   4,C   3,C  10)          111.54 -0.000108   -0.32    111.22   
    34. A(O   2,C   3,C   4)          106.83  0.000670   -0.35    106.48   
    35. A(O   2,C   3,C  10)          114.01 -0.000277    0.38    114.39   
    36. A(O   2,C   3,H  16)          107.10 -0.000707    0.47    107.57   
    37. A(C   4,C   3,H  16)          107.71 -0.001188    0.66    108.36   
    38. A(C   3,C   4,H  17)          110.41  0.000976   -0.60    109.82   
    39. A(O   5,C   4,H  18)          109.32 -0.001131    0.55    109.87   
    40. A(H  17,C   4,H  18)          109.23 -0.000213    0.27    109.51   
    41. A(C   3,C   4,O   5)          108.85  0.002220   -0.76    108.09   
    42. A(C   3,C   4,H  18)          109.69 -0.000403    0.13    109.82   
    43. A(O   5,C   4,H  17)          109.32 -0.001471    0.42    109.74   
    44. A(C   4,O   5,P   6)          115.68  0.002832   -0.65    115.03   
    45. A(O   7,P   6,O   9)          115.78  0.002588   -0.41    115.36   
    46. A(O   5,P   6,O   8)          102.65  0.006799   -1.62    101.04   
    47. A(O   5,P   6,O   7)          116.04  0.001855   -0.89    115.15   
    48. A(O   8,P   6,O   9)          102.25 -0.003751    1.31    103.56   
    49. A(O   7,P   6,O   8)          113.49 -0.006618    1.98    115.47   
    50. A(O   5,P   6,O   9)          104.89 -0.000794   -0.30    104.59   
    51. A(P   6,O   8,H  19)          109.26  0.001008   -0.27    108.99   
    52. A(P   6,O   9,H  20)          110.95 -0.001194    0.27    111.23   
    53. A(C   3,C  10,C  12)          109.04 -0.000394    0.44    109.48   
    54. A(C   3,C  10,O  11)          108.61  0.002809   -1.55    107.06   
    55. A(C  12,C  10,H  21)          109.49  0.000891   -0.41    109.08   
    56. A(O  11,C  10,H  21)          108.45 -0.001914    1.48    109.93   
    57. A(C   3,C  10,H  21)          111.03  0.000675   -0.94    110.10   
    58. A(O  11,C  10,C  12)          110.21 -0.002090    1.01    111.21   
    59. A(C  10,O  11,H  22)          105.58 -0.003007    0.84    106.42   
    60. A(O  13,C  12,C  14)          110.87 -0.001824    0.78    111.65   
    61. A(C  14,C  12,H  23)          110.86  0.001335   -1.02    109.84   
    62. A(O  13,C  12,H  23)          107.49 -0.001525    1.66    109.15   
    63. A(C  10,C  12,C  14)          108.65  0.001523   -0.59    108.06   
    64. A(C  10,C  12,H  23)          110.71  0.000184   -0.52    110.19   
    65. A(C  10,C  12,O  13)          108.24  0.000237   -0.24    108.00   
    66. A(C  12,O  13,H  24)          105.83 -0.003767    1.10    106.93   
    67. A(C  12,C  14,O  15)          108.70 -0.002060    0.93    109.63   
    68. A(C   1,C  14,O  15)          111.31  0.002005   -1.02    110.28   
    69. A(O  15,C  14,H  25)          107.86 -0.002078    1.60    109.47   
    70. A(C  12,C  14,H  25)          110.06  0.001938   -1.20    108.86   
    71. A(C   1,C  14,C  12)          111.57 -0.000203    0.41    111.98   
    72. A(C   1,C  14,H  25)          107.27  0.000409   -0.71    106.55   
    73. A(C  14,O  15,H  26)          106.61 -0.002719    0.82    107.43   
    74. D(C   3,O   2,C   1,C  14)    -27.34 -0.001813    3.91    -23.43   
    75. D(C   3,O   2,C   1,O   0)    157.80 -0.001735    2.70    160.49   
    76. D(C   4,C   3,O   2,C   1)    156.61  0.001707   -3.56    153.06   
    77. D(H  16,C   3,O   2,C   1)    -88.20  0.000325   -2.74    -90.94   
    78. D(C  10,C   3,O   2,C   1)     32.92  0.001533   -3.15     29.77   
    79. D(O   5,C   4,C   3,C  10)     60.91 -0.000102   -0.24     60.68   
    80. D(H  18,C   4,C   3,O   2)     55.28 -0.000426    0.03     55.31   
    81. D(H  18,C   4,C   3,H  16)    -59.49  0.000632   -0.66    -60.16   
    82. D(H  17,C   4,C   3,H  16)     60.94  0.000727   -0.62     60.32   
    83. D(H  17,C   4,C   3,C  10)    -59.09 -0.000281    0.10    -58.99   
    84. D(O   5,C   4,C   3,H  16)   -179.06  0.000906   -0.96   -180.02   
    85. D(O   5,C   4,C   3,O   2)    -64.29 -0.000152   -0.27    -64.56   
    86. D(H  17,C   4,C   3,O   2)    175.71 -0.000331    0.08    175.78   
    87. D(H  18,C   4,C   3,C  10)   -179.52 -0.000376    0.06   -179.46   
    88. D(P   6,O   5,C   4,C   3)    166.55 -0.000206   -0.72    165.83   
    89. D(P   6,O   5,C   4,H  18)     46.75 -0.000375   -0.76     45.99   
    90. D(P   6,O   5,C   4,H  17)    -72.77  0.001449   -1.66    -74.43   
    91. D(O   9,P   6,O   5,C   4)    -77.69 -0.001632   -1.02    -78.71   
    92. D(O   8,P   6,O   5,C   4)    175.77  0.000334   -1.78    173.99   
    93. D(O   7,P   6,O   5,C   4)     51.41  0.002528   -2.52     48.89   
    94. D(H  19,O   8,P   6,O   7)     23.44  0.001929   -0.05     23.39   
    95. D(H  19,O   8,P   6,O   5)   -102.59 -0.001209    0.97   -101.62   
    96. D(H  19,O   8,P   6,O   9)    148.86 -0.001268    1.34    150.20   
    97. D(H  20,O   9,P   6,O   8)     41.44  0.004640    0.58     42.02   
    98. D(H  20,O   9,P   6,O   7)    165.35 -0.004882    3.73    169.08   
    99. D(H  20,O   9,P   6,O   5)    -65.39 -0.001166    1.96    -63.44   
   100. D(O  11,C  10,C   3,H  16)    -48.64  0.000423    0.63    -48.01   
   101. D(O  11,C  10,C   3,C   4)     70.40 -0.000156    0.74     71.15   
   102. D(O  11,C  10,C   3,O   2)   -168.49  0.000443    0.32   -168.17   
   103. D(C  12,C  10,C   3,C   4)   -169.48 -0.001250    1.31   -168.17   
   104. D(C  12,C  10,C   3,O   2)    -48.37 -0.000651    0.89    -47.48   
   105. D(H  21,C  10,C   3,H  16)   -167.80  0.000603    0.38   -167.42   
   106. D(H  21,C  10,C   3,C   4)    -48.76  0.000025    0.49    -48.26   
   107. D(H  21,C  10,C   3,O   2)     72.35  0.000624    0.08     72.43   
   108. D(C  12,C  10,C   3,H  16)     71.48 -0.000672    1.20     72.68   
   109. D(H  22,O  11,C  10,H  21)    -72.06  0.000851   -0.49    -72.56   
   110. D(H  22,O  11,C  10,C  12)     47.78 -0.000485    0.44     48.22   
   111. D(H  22,O  11,C  10,C   3)    167.17 -0.000488    0.66    167.82   
   112. D(H  23,C  12,C  10,O  11)     57.02  0.000235    0.73     57.75   
   113. D(H  23,C  12,C  10,C   3)    -62.10 -0.001704    1.74    -60.36   
   114. D(C  14,C  12,C  10,H  21)    -61.81 -0.000067    0.86    -60.95   
   115. D(C  14,C  12,C  10,O  11)    178.98  0.003010   -1.30    177.69   
   116. D(C  14,C  12,C  10,C   3)     59.86  0.001071   -0.28     59.58   
   117. D(O  13,C  12,C  10,H  21)     58.66 -0.001242    1.31     59.97   
   118. D(O  13,C  12,C  10,O  11)    -60.55  0.001835   -0.84    -61.39   
   119. D(H  23,C  12,C  10,H  21)    176.23 -0.002842    2.88    179.11   
   120. D(O  13,C  12,C  10,C   3)   -179.67 -0.000104    0.17   -179.50   
   121. D(H  24,O  13,C  12,H  23)     71.56 -0.000023    0.17     71.72   
   122. D(H  24,O  13,C  12,C  14)    -49.76  0.000407   -0.07    -49.82   
   123. D(H  24,O  13,C  12,C  10)   -168.83 -0.000525    0.34   -168.49   
   124. D(O  15,C  14,C  12,H  23)    -55.59 -0.000188   -0.27    -55.87   
   125. D(O  15,C  14,C  12,O  13)     63.71 -0.002416    1.65     65.36   
   126. D(O  15,C  14,C  12,C  10)   -177.46 -0.002266    1.46   -176.00   
   127. D(C   1,C  14,C  12,O  13)   -173.17 -0.001446    1.27   -171.90   
   128. D(C   1,C  14,C  12,C  10)    -54.34 -0.001296    1.08    -53.27   
   129. D(H  25,C  14,C   1,O   2)    -82.65 -0.001221   -0.85    -83.49   
   130. D(H  25,C  14,C   1,O   0)     92.22 -0.001303    0.36     92.58   
   131. D(C   1,C  14,C  12,H  23)     67.52  0.000782   -0.65     66.87   
   132. D(O  15,C  14,C   1,O   2)    159.58 -0.000072   -1.78    157.80   
   133. D(O  15,C  14,C   1,O   0)    -25.56 -0.000154   -0.57    -26.13   
   134. D(C  12,C  14,C   1,O   2)     37.96  0.001303   -2.55     35.41   
   135. D(H  25,C  14,C  12,C  10)     64.61  0.000353   -0.35     64.26   
   136. D(C  12,C  14,C   1,O   0)   -147.18  0.001221   -1.34   -148.52   
   137. D(H  25,C  14,C  12,H  23)   -173.52  0.002431   -2.08   -175.60   
   138. D(H  25,C  14,C  12,O  13)    -54.21  0.000203   -0.16    -54.37   
   139. D(H  26,O  15,C  14,H  25)    -83.63  0.001048   -4.21    -87.83   
   140. D(H  26,O  15,C  14,C  12)    157.06  0.001068   -4.16    152.90   
   141. D(H  26,O  15,C  14,C   1)     33.79  0.001418   -4.65     29.13   
[...]
     68       0.000795  -0.000118  -0.000236  -0.000583   0.000019   0.000066
     69       0.006894  -0.000117  -0.000308  -0.000111  -0.000159  -0.000010
     70      -0.053903   0.000268   0.001040   0.000197   0.000160   0.000344
     71      -0.520697   0.001863   0.005862   0.001696   0.000408   0.001087
     72       0.000355   0.000077  -0.000202   0.000324  -0.000800   0.000106
     73       0.000276  -0.000064  -0.000292   0.000308  -0.000778  -0.015128
     74       0.001700  -0.000118  -0.000081  -0.000051  -0.000121   0.000095
     75       0.015152  -0.000013  -0.000331  -0.000157   0.001716   0.002507
     76      -0.042044  -0.000128  -0.000436   0.000613  -0.000697  -0.001472
     77      -0.247083   0.003283   0.000038   0.007063   0.001610  -0.004120
     78       0.000736   0.000298  -0.000169   0.000333   0.015672  -0.881271
     79       0.000599   0.000259   0.000304  -0.000216   0.010965  -0.429376
     80       0.002649  -0.000087   0.000013  -0.000053   0.002532  -0.185799
                 78         79         80    
      0       0.000106  -0.000020  -0.000032
      1       0.000069  -0.000030  -0.000023
      2       0.000038  -0.000010  -0.000007
      3      -0.000236   0.000034   0.000035
      4      -0.000050   0.000000   0.000075
      5      -0.000071   0.000017   0.000049
      6       0.000054   0.000009  -0.000003
      7       0.000021   0.000011  -0.000019
      8       0.000023   0.000030   0.000005
      9      -0.000146  -0.000209   0.000028
     10       0.000181   0.000174   0.000031
     11      -0.000107  -0.000100   0.000011
     12      -0.000029  -0.000020  -0.000124
     13       0.000041   0.000024  -0.000241
     14       0.000039   0.000018   0.000107
     15       0.000039   0.000003   0.000287
     16       0.000008  -0.000001   0.000300
     17      -0.000006   0.000016  -0.000211
     18      -0.000038  -0.000012   0.000037
     19      -0.000012  -0.000001  -0.000047
     20       0.000012   0.000002   0.000299
     21       0.000015   0.000003  -0.000080
     22      -0.000002  -0.000002   0.000322
     23      -0.000006  -0.000002   0.000069
     24       0.000001  -0.000004  -0.007560
     25       0.000024   0.000003   0.007529
     26       0.000050   0.000041   0.061681
     27       0.000049   0.000010   0.000041
     28      -0.000062  -0.000014  -0.000289
     29      -0.000041  -0.000006  -0.000657
     30      -0.000820  -0.001326  -0.000027
     31       0.000080  -0.000146  -0.000017
     32       0.000128   0.000217  -0.000015
     33      -0.028500  -0.050257   0.000064
     34       0.010254   0.018296  -0.000012
     35      -0.003195  -0.005743  -0.000001
     36      -0.000870   0.000802  -0.000037
     37       0.001105  -0.000689   0.000011
     38      -0.000339   0.000278   0.000014
     39      -0.001403   0.000619   0.000013
     40       0.053847  -0.030652  -0.000032
     41      -0.000014   0.000060   0.000002
     42       0.000087  -0.000119   0.000001
     43      -0.000291   0.000104   0.000022
     44      -0.000050   0.000054  -0.000000
     45      -0.000972   0.000555   0.000010
     46      -0.000274   0.000213  -0.000008
     47      -0.000250   0.000137  -0.000012
     48       0.000018   0.000540  -0.000027
     49      -0.002472  -0.004044  -0.000057
     50       0.002149   0.003464  -0.000117
     51      -0.000400  -0.000446   0.000346
     52      -0.000380  -0.000356   0.000293
     53      -0.000572  -0.000523   0.000212
     54       0.000254   0.000405  -0.000434
     55      -0.000252  -0.000285   0.000146
     56       0.000260   0.000279   0.000007
     57       0.000075   0.000076   0.119241
     58      -0.000215  -0.000093  -0.127548
     59      -0.000859  -0.000632  -0.982612
     60      -0.000686  -0.000115  -0.002256
     61       0.001039   0.000242   0.006044
     62       0.000662   0.000118   0.004942
     63      -0.000099   0.000110  -0.000036
     64      -0.000588   0.000175  -0.000004
     65      -0.003106   0.000571   0.000133
     66       0.461781   0.816706  -0.000963
     67      -0.161217  -0.283592   0.000272
     68       0.048882   0.085173  -0.000062
     69       0.000259  -0.000774   0.000004
     70       0.000318  -0.000349  -0.000009
     71       0.001310  -0.002032  -0.000127
     72       0.038441  -0.020763  -0.000110
     73      -0.867664   0.490865   0.000448
     74       0.005267  -0.002633  -0.000003
     75      -0.000425   0.000264  -0.000123
     76       0.000631  -0.000401   0.000008
     77       0.001223  -0.000950   0.000259
     78       0.011823  -0.006597  -0.000104
     79       0.004488  -0.002538  -0.000036
     80       0.003132  -0.001766   0.000100


-----------
IR SPECTRUM
-----------

 Mode   freq       eps      Int      T**2         TX        TY        TZ
       cm**-1   L/(mol*cm) km/mol    a.u.
----------------------------------------------------------------------------
  6:     30.54   0.000134    0.68  0.001367  ( 0.006200  0.003567  0.036280)
  7:     41.02   0.000586    2.96  0.004457  (-0.027426  0.055184 -0.025683)
  8:     63.42   0.000916    4.63  0.004506  (-0.024561 -0.035004 -0.051740)
  9:     95.59   0.000175    0.88  0.000571  ( 0.004429 -0.023478 -0.000777)
 10:     96.27   0.000203    1.02  0.000657  ( 0.009915  0.012761 -0.019886)
 11:    119.96   0.001982   10.02  0.005156  ( 0.071597  0.002013 -0.005089)
 12:    147.36   0.000149    0.75  0.000315  ( 0.007143  0.009370 -0.013270)
 13:    201.07   0.006525   32.97  0.010127  (-0.100386  0.002734  0.006468)
 14:    225.66   0.000368    1.86  0.000509  (-0.014672 -0.016472  0.004709)
 15:    244.95   0.002085   10.54  0.002656  (-0.023100  0.030222 -0.034773)
 16:    247.78   0.012456   62.95  0.015688  (-0.124443 -0.013518  0.004380)
 17:    263.92   0.009380   47.40  0.011091  (-0.062511  0.080089 -0.027726)
 18:    293.27   0.002259   11.42  0.002404  (-0.041671  0.023611 -0.010476)
 19:    321.21   0.000599    3.03  0.000582  ( 0.010515 -0.021700  0.000874)
 20:    343.32   0.008980   45.38  0.008163  ( 0.007865  0.025185  0.086409)
 21:    344.42   0.014015   70.82  0.012698  ( 0.086598  0.051000 -0.050966)
 22:    357.82   0.001808    9.14  0.001577  ( 0.035393  0.005292 -0.017207)
 23:    382.29   0.007488   37.84  0.006112  ( 0.060765  0.034141 -0.035418)
 24:    404.94   0.002555   12.91  0.001969  (-0.012552  0.039176  0.016634)
 25:    412.27   0.002420   12.23  0.001832  ( 0.023051  0.017632 -0.031461)
 26:    419.87   0.029647  149.82  0.022035  (-0.007320  0.033777  0.144363)
 27:    428.95   0.007281   36.79  0.005297  ( 0.040756 -0.016305  0.058051)
 28:    434.03   0.050216  253.77  0.036104  (-0.030581  0.046195  0.181755)
 29:    471.47   0.004698   23.74  0.003110  (-0.020351 -0.032530 -0.040465)
 30:    473.82   0.014411   72.83  0.009491  (-0.071284 -0.059415  0.029655)
 31:    499.96   0.002445   12.35  0.001526  (-0.019602  0.007463 -0.032955)
 32:    573.96   0.009349   47.24  0.005083  (-0.055055 -0.039596  0.021999)
 33:    591.28   0.014928   75.44  0.007879  ( 0.053588  0.028240 -0.064880)
 34:    611.12   0.017178   86.81  0.008772  (-0.082802 -0.037239  0.022998)
 35:    692.02   0.018541   93.70  0.008361  ( 0.071290 -0.027824 -0.050046)
 36:    706.30   0.027760  140.29  0.012265  ( 0.108562  0.014532 -0.016373)
 37:    794.83   0.008484   42.87  0.003331  ( 0.041327  0.012725 -0.038224)
 38:    817.08   0.029206  147.60  0.011155  ( 0.082148  0.054041 -0.038548)
 39:    877.60   0.038069  192.38  0.013537  ( 0.004937  0.080261 -0.084086)
 40:    884.96   0.002236   11.30  0.000788  ( 0.022217  0.017101 -0.001560)
 41:    897.89   0.009178   46.38  0.003190  (-0.048560 -0.019183  0.021537)
 42:    910.80   0.034575  174.73  0.011846  (-0.036236 -0.099377 -0.025638)
 43:    967.57   0.002705   13.67  0.000872  ( 0.024820  0.011885 -0.010727)
 44:    976.86   0.084247  425.75  0.026913  (-0.117352  0.018440 -0.113144)
 45:   1007.69   0.020522  103.71  0.006355  ( 0.059654 -0.027961  0.044887)
 46:   1035.05   0.000772    3.90  0.000233  ( 0.002652  0.002699  0.014782)
 47:   1049.80   0.002441   12.33  0.000726  (-0.002364 -0.022145 -0.015151)
 48:   1079.23   0.000979    4.95  0.000283  ( 0.009990 -0.013496 -0.001109)
 49:   1097.78   0.030063  151.93  0.008546  (-0.040031 -0.068266  0.047784)
 50:   1106.14   0.014480   73.18  0.004085  (-0.016281 -0.061620 -0.004793)
 51:   1126.09   0.022410  113.25  0.006210  (-0.049595  0.035279 -0.050058)
 52:   1146.61   0.026770  135.28  0.007286  (-0.067767  0.050887  0.010198)
 53:   1154.48   0.012136   61.33  0.003280  (-0.016701  0.054395  0.006531)
 54:   1186.48   0.004481   22.64  0.001179  ( 0.023890  0.007268  0.023559)
 55:   1196.61   0.018087   91.41  0.004717  ( 0.003009 -0.065612  0.020076)
 56:   1210.25   0.012077   61.03  0.003114  ( 0.016293  0.050225  0.018056)
 57:   1226.60   0.032675  165.13  0.008313  ( 0.004203  0.080589 -0.042436)
 58:   1254.24   0.002273   11.49  0.000566  ( 0.014083  0.012531 -0.014498)
 59:   1258.30   0.013184   66.62  0.003270  (-0.056394  0.004799 -0.008142)
 60:   1278.61   0.029842  150.81  0.007283  (-0.023331  0.080546 -0.015851)
 61:   1289.38   0.016810   84.95  0.004069  (-0.013440 -0.053231 -0.032472)
 62:   1294.63   0.049457  249.94  0.011921  (-0.065795  0.073145  0.047351)
 63:   1309.94   0.011684   59.05  0.002783  ( 0.025351 -0.023107 -0.040085)
 64:   1318.34   0.013874   70.11  0.003284  ( 0.009616 -0.052654  0.020473)
 65:   1327.04   0.001493    7.54  0.000351  ( 0.014429  0.007771  0.009078)
 66:   1340.35   0.005295   26.76  0.001233  (-0.021557 -0.026812 -0.007015)
 67:   1349.60   0.001836    9.28  0.000424  ( 0.002138  0.017439 -0.010760)
 68:   1454.18   0.000074    0.37  0.000016  ( 0.000737 -0.003719  0.001190)
 69:   1725.96   0.093482  472.42  0.016902  (-0.092321 -0.090300 -0.014999)
 70:   2846.55   0.000041    0.21  0.000004  (-0.001005  0.001825 -0.000393)
 71:   2855.32   0.001450    7.33  0.000158  ( 0.001348 -0.001831 -0.012382)
 72:   2867.56   0.020190  102.03  0.002197  ( 0.000477  0.000138  0.046871)
 73:   2950.16   0.000167    0.84  0.000018  (-0.001426  0.002060 -0.003373)
 74:   2960.41   0.000067    0.34  0.000007  (-0.000765 -0.000850 -0.002390)
 75:   2968.05   0.000151    0.76  0.000016  ( 0.000238  0.003882 -0.000864)
 76:   3309.14   0.069065  349.03  0.006513  ( 0.056511 -0.048552 -0.031021)
 77:   3436.69   0.008133   41.10  0.000739  (-0.024738 -0.002846 -0.010885)
 78:   3514.84   0.015086   76.24  0.001339  ( 0.014976 -0.033303  0.002451)
 79:   3516.57   0.003875   19.58  0.000344  ( 0.018208 -0.000970  0.003370)
 80:   3628.43   0.011248   56.84  0.000967  ( 0.006934 -0.005657 -0.029787)

* The epsilon (eps) is given for a Dirac delta lineshape.
** The dipole moment derivative (T) already includes vibrational overlap.

The first frequency considered to be a vibration is 6
The total number of vibrations considered is 75


--------------------------
THERMOCHEMISTRY AT 298.15K
--------------------------

Temperature         ... 298.15 K
Pressure            ... 1.00 atm
Total Mass          ... 258.12 AMU

Throughout the following assumptions are being made:
  (1) The electronic state is orbitally nondegenerate
  (2) There are no thermally accessible electronically excited states
  (3) Hindered rotations indicated by low frequency modes are not
      treated as such but are treated as vibrations and this may
      cause some error
  (4) All equations used are the standard statistical mechanics
      equations for an ideal gas
  (5) All vibrations are strictly harmonic

freq.      30.54  E(vib)   ...       0.55 
freq.      41.02  E(vib)   ...       0.54 
freq.      63.42  E(vib)   ...       0.51 
freq.      95.59  E(vib)   ...       0.47 
freq.      96.27  E(vib)   ...       0.47 
freq.     119.96  E(vib)   ...       0.44 
freq.     147.36  E(vib)   ...       0.41 
freq.     201.07  E(vib)   ...       0.35 
freq.     225.66  E(vib)   ...       0.33 
freq.     244.95  E(vib)   ...       0.31 
freq.     247.78  E(vib)   ...       0.31 
freq.     263.92  E(vib)   ...       0.29 
freq.     293.27  E(vib)   ...       0.27 
freq.     321.21  E(vib)   ...       0.25 
freq.     343.32  E(vib)   ...       0.23 
freq.     344.42  E(vib)   ...       0.23 
freq.     357.82  E(vib)   ...       0.22 
freq.     382.29  E(vib)   ...       0.21 
freq.     404.94  E(vib)   ...       0.19 
freq.     412.27  E(vib)   ...       0.19 
freq.     419.87  E(vib)   ...       0.18 
freq.     428.95  E(vib)   ...       0.18 
freq.     434.03  E(vib)   ...       0.17 
freq.     471.47  E(vib)   ...       0.15 
freq.     473.82  E(vib)   ...       0.15 
freq.     499.96  E(vib)   ...       0.14 
freq.     573.96  E(vib)   ...       0.11 
freq.     591.28  E(vib)   ...       0.10 
freq.     611.12  E(vib)   ...       0.10 
freq.     692.02  E(vib)   ...       0.07 
freq.     706.30  E(vib)   ...       0.07 
freq.     794.83  E(vib)   ...       0.05 
freq.     817.08  E(vib)   ...       0.05 
freq.     877.60  E(vib)   ...       0.04 
freq.     884.96  E(vib)   ...       0.04 
freq.     897.89  E(vib)   ...       0.03 
freq.     910.80  E(vib)   ...       0.03 
freq.     967.57  E(vib)   ...       0.03 
freq.     976.86  E(vib)   ...       0.03 
freq.    1007.69  E(vib)   ...       0.02 
freq.    1035.05  E(vib)   ...       0.02 
freq.    1049.80  E(vib)   ...       0.02 
freq.    1079.23  E(vib)   ...       0.02 
freq.    1097.78  E(vib)   ...       0.02 
freq.    1106.14  E(vib)   ...       0.02 
freq.    1126.09  E(vib)   ...       0.01 
freq.    1146.61  E(vib)   ...       0.01 
freq.    1154.48  E(vib)   ...       0.01 
freq.    1186.48  E(vib)   ...       0.01 
freq.    1196.61  E(vib)   ...       0.01 
freq.    1210.25  E(vib)   ...       0.01 
freq.    1226.60  E(vib)   ...       0.01 
freq.    1254.24  E(vib)   ...       0.01 
freq.    1258.30  E(vib)   ...       0.01 
freq.    1278.61  E(vib)   ...       0.01 
freq.    1289.38  E(vib)   ...       0.01 
freq.    1294.63  E(vib)   ...       0.01 
freq.    1309.94  E(vib)   ...       0.01 
freq.    1318.34  E(vib)   ...       0.01 
freq.    1327.04  E(vib)   ...       0.01 
freq.    1340.35  E(vib)   ...       0.01 
freq.    1349.60  E(vib)   ...       0.01 
freq.    1454.18  E(vib)   ...       0.00 
freq.    1725.96  E(vib)   ...       0.00 
freq.    2846.55  E(vib)   ...       0.00 
freq.    2855.32  E(vib)   ...       0.00 
freq.    2867.56  E(vib)   ...       0.00 
freq.    2950.16  E(vib)   ...       0.00 
freq.    2960.41  E(vib)   ...       0.00 
freq.    2968.05  E(vib)   ...       0.00 
freq.    3309.14  E(vib)   ...       0.00 
freq.    3436.69  E(vib)   ...       0.00 
freq.    3514.84  E(vib)   ...       0.00 
freq.    3516.57  E(vib)   ...       0.00 
freq.    3628.43  E(vib)   ...       0.00 

------------
INNER ENERGY
------------

The inner energy is: U= E(el) + E(ZPE) + E(vib) + E(rot) + E(trans)
    E(el)   - is the total energy from the electronic structure calculation
              = E(kin-el) + E(nuc-el) + E(el-el) + E(nuc-nuc)
    E(ZPE)  - the the zero temperature vibrational energy from the frequency calculation
    E(vib)  - the the finite temperature correction to E(ZPE) due to population
              of excited vibrational states
    E(rot)  - is the rotational thermal energy
    E(trans)- is the translational thermal energy

Summary of contributions to the inner energy U:
Electronic energy                ...    -57.73726197 Eh
Zero point energy                ...      0.18987284 Eh     119.15 kcal/mol
Thermal vibrational correction   ...      0.01390605 Eh       8.73 kcal/mol
Thermal rotational correction    ...      0.00141627 Eh       0.89 kcal/mol
Thermal translational correction ...      0.00141627 Eh       0.89 kcal/mol
-----------------------------------------------------------------------
Total thermal energy                    -57.53065054 Eh


Summary of corrections to the electronic energy:
(perhaps to be used in another calculation)
Total thermal correction                  0.01673859 Eh      10.50 kcal/mol
Non-thermal (ZPE) correction              0.18987284 Eh     119.15 kcal/mol
-----------------------------------------------------------------------
Total correction                          0.20661143 Eh     129.65 kcal/mol


--------
ENTHALPY
--------

The enthalpy is H = U + kB*T
                kB is Boltzmann's constant
Total free energy                 ...    -57.53065054 Eh 
Thermal Enthalpy correction       ...      0.00094421 Eh       0.59 kcal/mol
-----------------------------------------------------------------------
Total Enthalpy                    ...    -57.52970633 Eh


Note: Only C1 symmetry has been detected, increase convergence thresholds 
      if your molecule has a higher symmetry. Symmetry factor of 1.0 is   
      used for the rotational entropy correction. 
 

Note: Rotational entropy computed according to Herzberg 
Infrared and Raman Spectra, Chapter V,1, Van Nostrand Reinhold, 1945 
Point Group:  C1, Symmetry Number:   1  
Rotational constants in cm-1:     0.028130     0.011891     0.010061 

Vibrational entropy computed according to the QRRHO of S. Grimme
Chem.Eur.J. 2012 18 9955


-------
ENTROPY
-------

The entropy contributions are T*S = T*(S(el)+S(vib)+S(rot)+S(trans))
     S(el)   - electronic entropy
     S(vib)  - vibrational entropy
     S(rot)  - rotational entropy
     S(trans)- translational entropy
The entropies will be listed as multiplied by the temperature to get
units of energy

Electronic entropy                ...      0.00000000 Eh      0.00 kcal/mol
Vibrational entropy               ...      0.02407565 Eh     15.11 kcal/mol
Rotational entropy                ...      0.01546006 Eh      9.70 kcal/mol
Translational entropy             ...      0.02021422 Eh     12.68 kcal/mol
-----------------------------------------------------------------------
Final entropy term                ...      0.05974993 Eh     37.49 kcal/mol

In case the symmetry of your molecule has not been determined correctly
or in case you have a reason to use a different symmetry number we print 
out the resulting rotational entropy values for sn=1,12 :
 --------------------------------------------------------
|  sn= 1 | S(rot)=       0.01546006 Eh      9.70 kcal/mol|
|  sn= 2 | S(rot)=       0.01480560 Eh      9.29 kcal/mol|
|  sn= 3 | S(rot)=       0.01442277 Eh      9.05 kcal/mol|
|  sn= 4 | S(rot)=       0.01415115 Eh      8.88 kcal/mol|
|  sn= 5 | S(rot)=       0.01394046 Eh      8.75 kcal/mol|
|  sn= 6 | S(rot)=       0.01376832 Eh      8.64 kcal/mol|
|  sn= 7 | S(rot)=       0.01362277 Eh      8.55 kcal/mol|
|  sn= 8 | S(rot)=       0.01349669 Eh      8.47 kcal/mol|
|  sn= 9 | S(rot)=       0.01338548 Eh      8.40 kcal/mol|
|  sn=10 | S(rot)=       0.01328600 Eh      8.34 kcal/mol|
|  sn=11 | S(rot)=       0.01319601 Eh      8.28 kcal/mol|
|  sn=12 | S(rot)=       0.01311386 Eh      8.23 kcal/mol|
 --------------------------------------------------------


-------------------
GIBBS FREE ENERGY
-------------------

The Gibbs free energy is G = H - T*S

Total enthalpy                    ...    -57.52970633 Eh 
Total entropy correction          ...     -0.05974993 Eh    -37.49 kcal/mol
-----------------------------------------------------------------------
Final Gibbs free energy         ...    -57.58945626 Eh

For completeness - the Gibbs free energy minus the electronic energy
G-E(el)                           ...      0.14780571 Eh     92.75 kcal/mol



Timings for individual modules:

Sum of individual times         ...      397.967 sec (=   6.633 min)
Geometry relaxation             ...        1.482 sec (=   0.025 min)   0.4 %
Numerical frequency calculation ...      395.184 sec (=   6.586 min)  99.3 %
XTB module                      ...        1.302 sec (=   0.022 min)   0.3 %
                             ****ORCA TERMINATED NORMALLY****
TOTAL RUN TIME: 0 days 0 hours 6 minutes 39 seconds 154 msec
