
                                 *****************
                                 * O   R   C   A *
                                 *****************

                                            #,                                       
                                            ###                                      
                                            ####                                     
                                            #####                                    
                                            ######                                   
                                           ########,                                 
                                     ,,################,,,,,                         
                               ,,#################################,,                 
                          ,,##########################################,,             
                       ,#########################################, ''#####,          
                    ,#############################################,,   '####,        
                  ,##################################################,,,,####,       
                ,###########''''           ''''###############################       
              ,#####''   ,,,,##########,,,,          '''####'''          '####       
            ,##' ,,,,###########################,,,                        '##       
           ' ,,###''''                  '''############,,,                           
         ,,##''                                '''############,,,,        ,,,,,,###''
      ,#''                                            '''#######################'''  
     '                                                          ''''####''''         
             ,#######,   #######,   ,#######,      ##                                
            ,#'     '#,  ##    ##  ,#'     '#,    #''#        ######   ,####,        
            ##       ##  ##   ,#'  ##            #'  '#       #        #'  '#        
            ##       ##  #######   ##           ,######,      #####,   #    #        
            '#,     ,#'  ##    ##  '#,     ,#' ,#      #,         ##   #,  ,#        
             '#######'   ##     ##  '#######'  #'      '#     #####' # '####'        



                  #######################################################
                  #                        -***-                        #
                  #          Department of theory and spectroscopy      #
                  #    Directorship and core code : Frank Neese         #
                  #        Max Planck Institute fuer Kohlenforschung    #
                  #                Kaiser Wilhelm Platz 1               #
                  #                 D-45470 Muelheim/Ruhr               #
                  #                      Germany                        #
                  #                                                     #
                  #                  All rights reserved                #
                  #                        -***-                        #
                  #######################################################


                         Program Version 5.0.3 -  RELEASE  -


 With contributions from (in alphabetic order):
   Daniel Aravena         : Magnetic Suceptibility
   Michael Atanasov       : Ab Initio Ligand Field Theory (pilot matlab implementation)
   Alexander A. Auer      : GIAO ZORA, VPT2 properties, NMR spectrum
   Ute Becker             : Parallelization
   Giovanni Bistoni       : ED, misc. LED, open-shell LED, HFLD
   Martin Brehm           : Molecular dynamics
   Dmytro Bykov           : SCF Hessian
   Vijay G. Chilkuri      : MRCI spin determinant printing, contributions to CSF-ICE
   Dipayan Datta          : RHF DLPNO-CCSD density
   Achintya Kumar Dutta   : EOM-CC, STEOM-CC
   Dmitry Ganyushin       : Spin-Orbit,Spin-Spin,Magnetic field MRCI
   Miquel Garcia          : C-PCM and meta-GGA Hessian, CC/C-PCM, Gaussian charge scheme
   Yang Guo               : DLPNO-NEVPT2, F12-NEVPT2, CIM, IAO-localization
   Andreas Hansen         : Spin unrestricted coupled pair/coupled cluster methods
   Benjamin Helmich-Paris : MC-RPA, TRAH-SCF, COSX integrals
   Lee Huntington         : MR-EOM, pCC
   Robert Izsak           : Overlap fitted RIJCOSX, COSX-SCS-MP3, EOM
   Marcus Kettner         : VPT2
   Christian Kollmar      : KDIIS, OOCD, Brueckner-CCSD(T), CCSD density, CASPT2, CASPT2-K
   Simone Kossmann        : Meta GGA functionals, TD-DFT gradient, OOMP2, MP2 Hessian
   Martin Krupicka        : Initial AUTO-CI
   Lucas Lang             : DCDCAS
   Marvin Lechner         : AUTO-CI (C++ implementation), FIC-MRCC
   Dagmar Lenk            : GEPOL surface, SMD
   Dimitrios Liakos       : Extrapolation schemes; Compound Job, initial MDCI parallelization
   Dimitrios Manganas     : Further ROCIS development; embedding schemes
   Dimitrios Pantazis     : SARC Basis sets
   Anastasios Papadopoulos: AUTO-CI, single reference methods and gradients
   Taras Petrenko         : DFT Hessian,TD-DFT gradient, ASA, ECA, R-Raman, ABS, FL, XAS/XES, NRVS
   Peter Pinski           : DLPNO-MP2, DLPNO-MP2 Gradient
   Christoph Reimann      : Effective Core Potentials
   Marius Retegan         : Local ZFS, SOC
   Christoph Riplinger    : Optimizer, TS searches, QM/MM, DLPNO-CCSD(T), (RO)-DLPNO pert. Triples
   Tobias Risthaus        : Range-separated hybrids, TD-DFT gradient, RPA, STAB
   Michael Roemelt        : Original ROCIS implementation
   Masaaki Saitow         : Open-shell DLPNO-CCSD energy and density
   Barbara Sandhoefer     : DKH picture change effects
   Avijit Sen             : IP-ROCIS
   Kantharuban Sivalingam : CASSCF convergence, NEVPT2, FIC-MRCI
   Bernardo de Souza      : ESD, SOC TD-DFT
   Georgi Stoychev        : AutoAux, RI-MP2 NMR, DLPNO-MP2 response
   Willem Van den Heuvel  : Paramagnetic NMR
   Boris Wezisla          : Elementary symmetry handling
   Frank Wennmohs         : Technical directorship


 We gratefully acknowledge several colleagues who have allowed us to
 interface, adapt or use parts of their codes:
   Stefan Grimme, W. Hujo, H. Kruse, P. Pracht,  : VdW corrections, initial TS optimization,
                  C. Bannwarth, S. Ehlert          DFT functionals, gCP, sTDA/sTD-DF
   Ed Valeev, F. Pavosevic, A. Kumar             : LibInt (2-el integral package), F12 methods
   Garnet Chan, S. Sharma, J. Yang, R. Olivares  : DMRG
   Ulf Ekstrom                                   : XCFun DFT Library
   Mihaly Kallay                                 : mrcc  (arbitrary order and MRCC methods)
   Jiri Pittner, Ondrej Demel                    : Mk-CCSD
   Frank Weinhold                                : gennbo (NPA and NBO analysis)
   Christopher J. Cramer and Donald G. Truhlar   : smd solvation model
   Lars Goerigk                                  : TD-DFT with DH, B97 family of functionals
   V. Asgeirsson, H. Jonsson                     : NEB implementation
   FAccTs GmbH                                   : IRC, NEB, NEB-TS, DLPNO-Multilevel, CI-OPT
                                                   MM, QMMM, 2- and 3-layer-ONIOM, Crystal-QMMM,
                                                   LR-CPCM, SF, NACMEs, symmetry and pop. for TD-DFT,
                                                   nearIR, NL-DFT gradient (VV10), updates on ESD,
                                                   ML-optimized integration grids
   S Lehtola, MJT Oliveira, MAL Marques          : LibXC Library
   Liviu Ungur et al                             : ANISO software


 Your calculation uses the libint2 library for the computation of 2-el integrals
 For citations please refer to: http://libint.valeyev.net

 Your ORCA version has been built with support for libXC version: 5.1.0
 For citations please refer to: https://tddft.org/programs/libxc/

 This ORCA versions uses:
   CBLAS   interface :  Fast vector & matrix operations
   LAPACKE interface :  Fast linear algebra routines
   SCALAPACK package :  Parallel linear algebra routines
   Shared memory     :  Shared parallel matrices
   BLAS/LAPACK       :  OpenBLAS 0.3.15  USE64BITINT DYNAMIC_ARCH NO_AFFINITY Haswell SINGLE_THREADED
        Core in use  :  Haswell
   Copyright (c) 2011-2014, The OpenBLAS Project


Your calculation utilizes the semiempirical GFN2-xTB method
Please cite in your paper:
C. Bannwarth, Ehlert S., S. Grimme,  J. Chem. Theory Comput., 15, (2019), 1652.
   

================================================================================

================================================================================
                                        WARNINGS
                       Please study these warnings very carefully!
================================================================================


WARNING: Geometry Optimization
  ===> : Switching off AutoStart
         For restart on a previous wavefunction, please use MOREAD

WARNING: Found dipole moment calculation with XTB calculation
  ===> : Switching off dipole moment calculation


WARNING: TRAH-SCF for XTB is not implemented!
  ===> : Turning TRAH off!

================================================================================
                                       INPUT FILE
================================================================================
NAME = /tmp/C04442.inp
|  1> ! XTB2 opt numfreq
|  2> * xyz 0 1
|  3>   O     0.678244   -0.270903    1.794488
|  4>   C     1.586543    0.354974    1.271205
|  5>   O     1.739448    1.635386    1.356839
|  6>   C     2.662263   -0.405158    0.481957
|  7>   O     3.806520   -0.438544    0.840656
|  8>   C     2.152725   -1.185687   -0.718093
|  9>   C     0.928112   -0.548349   -1.396275
| 10>   O     1.121943    0.837822   -1.295833
| 11>   C    -0.404305   -1.091247   -0.804992
| 12>   O    -0.731893   -2.218425   -1.585923
| 13>   C    -1.555833   -0.066129   -0.844507
| 14>   O    -1.246451    1.088250   -0.086616
| 15>   P    -1.653819    1.341981    1.427850
| 16>   O    -0.713521    2.252784    2.093897
| 17>   O    -3.124411    1.929406    1.287125
| 18>   O    -1.943965   -0.048716    2.123363
| 19>   H     0.910823    2.047120    1.745880
| 20>   H     2.985594   -1.245711   -1.419974
| 21>   H     1.920780   -2.202869   -0.394175
| 22>   H     0.908126   -0.854753   -2.456004
| 23>   H     0.330921    1.325001   -1.545898
| 24>   H    -0.255178   -1.382566    0.240083
| 25>   H    -1.480271   -2.680040   -1.191140
| 26>   H    -2.470214   -0.536873   -0.470245
| 27>   H    -1.729067    0.267858   -1.873809
| 28>   H    -3.322622    2.515533    2.014739
| 29>   H    -1.100393   -0.419947    2.409804
| 30> *
| 31> 
| 32>                          ****END OF INPUT****
================================================================================

                       *****************************
                       * Geometry Optimization Run *
                       *****************************

Geometry optimization settings:
Update method            Update   .... BFGS
Choice of coordinates    CoordSys .... Z-matrix Internals
Initial Hessian          InHess   .... Almoef's Model

Convergence Tolerances:
Energy Change            TolE     ....  5.0000e-06 Eh
Max. Gradient            TolMAXG  ....  3.0000e-04 Eh/bohr
RMS Gradient             TolRMSG  ....  1.0000e-04 Eh/bohr
Max. Displacement        TolMAXD  ....  4.0000e-03 bohr
RMS Displacement         TolRMSD  ....  2.0000e-03 bohr
Strict Convergence                ....  False
------------------------------------------------------------------------------
                        ORCA OPTIMIZATION COORDINATE SETUP
------------------------------------------------------------------------------

The optimization will be done in new redundant internal coordinates
Making redundant internal coordinates   ...  (new redundants) done
Evaluating the initial hessian          ...  (Almloef) done
Evaluating the coordinates              ...  done
Calculating the B-matrix                .... done
Calculating the G-matrix                .... done
Diagonalizing the G-matrix              .... done
Small eigenvalue found = 5.297e-03
Small eigenvalue found = 1.220e-02
Small eigenvalue found = 1.579e-02
Small eigenvalue found = 2.455e-02
The first mode is                       ....   51
The number of degrees of freedom        ....   75

    -----------------------------------------------------------------
                    Redundant Internal Coordinates


    -----------------------------------------------------------------
         Definition                    Initial Value    Approx d2E/dq
    -----------------------------------------------------------------
      1. B(C   1,O   0)                  1.2209         1.041577   
      2. B(O   2,C   1)                  1.2923         0.801069   
      3. B(C   3,C   1)                  1.5355         0.366047   
      4. B(O   4,C   3)                  1.1996         1.126171   
      5. B(C   5,C   3)                  1.5195         0.388222   
      6. B(C   6,C   5)                  1.5381         0.362598   
      7. B(O   7,C   6)                  1.4033         0.532998   
      8. B(C   8,C   6)                  1.5555         0.340125   
      9. B(O   9,C   8)                  1.4099         0.520229   
     10. B(C  10,C   8)                  1.5422         0.357174   
     11. B(O  11,C  10)                  1.4152         0.510174   
     12. B(P  12,O  11)                  1.5887         0.906510   
     13. B(O  13,P  12)                  1.4688         1.408207   
     14. B(O  14,P  12)                  1.5898         0.902770   
     15. B(O  15,P  12)                  1.5818         0.929887   
     16. B(H  16,O   2)                  1.0037         0.442772   
     17. B(H  17,C   5)                  1.0908         0.359003   
     18. B(H  18,C   5)                  1.0924         0.356913   
     19. B(H  19,C   6)                  1.1033         0.342907   
     20. B(H  20,O   7)                  0.9621         0.516004   
     21. B(H  21,C   8)                  1.0951         0.353390   
     22. B(H  22,O   9)                  0.9639         0.512649   
     23. B(H  23,C  10)                  1.0944         0.354295   
     24. B(H  24,C  10)                  1.0959         0.352365   
     25. B(H  25,O  14)                  0.9551         0.529361   
     26. B(H  26,H  16)                  3.2515         0.000025   
     27. B(H  26,O  15)                  0.9651         0.510250   
     28. A(O   0,C   1,C   3)          119.1905         0.430593   
     29. A(O   0,C   1,O   2)          124.5782         0.493488   
     30. A(O   2,C   1,C   3)          116.2076         0.410886   
     31. A(C   1,O   2,H  16)          109.5372         0.376261   
     32. A(C   1,C   3,O   4)          121.8909         0.436684   
     33. A(O   4,C   3,C   5)          122.7991         0.441344   
     34. A(C   1,C   3,C   5)          115.1688         0.364478   
     35. A(C   3,C   5,H  17)          106.2836         0.326212   
     36. A(C   6,C   5,H  17)          110.3035         0.322574   
     37. A(C   3,C   5,C   6)          113.7251         0.363888   
     38. A(C   3,C   5,H  18)          108.3797         0.325899   
     39. A(H  17,C   5,H  18)          107.5576         0.290295   
     40. A(C   6,C   5,H  18)          110.3355         0.322266   
     41. A(C   8,C   6,H  19)          104.6349         0.316838   
     42. A(C   5,C   6,H  19)          108.8352         0.320162   
     43. A(O   7,C   6,H  19)          110.2174         0.339146   
     44. A(O   7,C   6,C   8)          115.8407         0.377691   
     45. A(C   5,C   6,C   8)          111.7009         0.355781   
     46. A(C   5,C   6,O   7)          105.5323         0.381902   
     47. A(C   6,O   7,H  20)          111.5949         0.360190   
     48. A(O   9,C   8,C  10)          110.1051         0.379307   
     49. A(C   6,C   8,C  10)          113.4434         0.354872   
     50. A(C   6,C   8,O   9)          105.5163         0.376111   
     51. A(O   9,C   8,H  21)          110.3380         0.339479   
     52. A(C  10,C   8,H  21)          107.6348         0.320950   
     53. A(C   6,C   8,H  21)          109.8126         0.318397   
     54. A(C   8,O   9,H  22)          109.6600         0.358307   
     55. A(C   8,C  10,O  11)          111.4231         0.378027   
     56. A(H  23,C  10,H  24)          108.6752         0.289112   
     57. A(C   8,C  10,H  24)          110.1614         0.320798   
     58. A(O  11,C  10,H  23)          110.5103         0.338519   
     59. A(C   8,C  10,H  23)          109.2181         0.321084   
     60. A(O  11,C  10,H  24)          106.7956         0.338211   
     61. A(C  10,O  11,P  12)          125.7852         0.473552   
     62. A(O  14,P  12,O  15)          101.1925         0.567201   
     63. A(O  13,P  12,O  15)          117.5963         0.617828   
     64. A(O  11,P  12,O  15)          109.0129         0.567649   
     65. A(O  13,P  12,O  14)          113.7779         0.614297   
     66. A(O  11,P  12,O  14)          102.2290         0.564453   
     67. A(O  11,P  12,O  13)          111.5408         0.614789   
     68. A(P  12,O  14,H  25)          110.5654         0.422915   
     69. A(P  12,O  15,H  26)          107.9601         0.422373   
     70. D(H  16,O   2,C   1,O   0)    -11.7072         0.049474   
     71. D(H  16,O   2,C   1,C   3)    170.0855         0.049474   
     72. D(O   4,C   3,C   1,O   0)   -114.6838         0.009330   
     73. D(C   5,C   3,C   1,O   0)     61.1107         0.009330   
     74. D(O   4,C   3,C   1,O   2)     63.6256         0.009330   
     75. D(C   5,C   3,C   1,O   2)   -120.5800         0.009330   
     76. D(H  18,C   5,C   3,C   1)    -91.7139         0.011218   
     77. D(C   6,C   5,C   3,C   1)     31.3811         0.011218   
     78. D(H  17,C   5,C   3,O   4)    -31.3167         0.011218   
     79. D(H  17,C   5,C   3,C   1)    152.9314         0.011218   
     80. D(C   6,C   5,C   3,O   4)   -152.8669         0.011218   
     81. D(H  18,C   5,C   3,O   4)     84.0381         0.011218   
     82. D(O   7,C   6,C   5,H  17)    -83.7757         0.010538   
     83. D(O   7,C   6,C   5,C   3)     35.5104         0.010538   
     84. D(O   7,C   6,C   5,H  18)    157.5292         0.010538   
     85. D(H  19,C   6,C   5,H  18)    -84.1908         0.010538   
     86. D(H  19,C   6,C   5,H  17)     34.5044         0.010538   
     87. D(H  19,C   6,C   5,C   3)    153.7905         0.010538   
     88. D(C   8,C   6,C   5,H  18)     30.8376         0.010538   
     89. D(C   8,C   6,C   5,H  17)    149.5327         0.010538   
     90. D(C   8,C   6,C   5,C   3)    -91.1811         0.010538   
     91. D(H  20,O   7,C   6,H  19)     73.2740         0.022572   
     92. D(H  20,O   7,C   6,C   8)    -45.2491         0.022572   
     93. D(H  20,O   7,C   6,C   5)   -169.3751         0.022572   
     94. D(C  10,C   8,C   6,H  19)    -92.9667         0.009366   
     95. D(C  10,C   8,C   6,O   7)     28.5883         0.009366   
     96. D(C  10,C   8,C   6,C   5)    149.4495         0.009366   
     97. D(O   9,C   8,C   6,H  19)     27.6462         0.009366   
     98. D(O   9,C   8,C   6,O   7)    149.2011         0.009366   
     99. D(H  21,C   8,C   6,C   5)     28.9713         0.009366   
    100. D(O   9,C   8,C   6,C   5)    -89.9377         0.009366   
    101. D(H  21,C   8,C   6,H  19)    146.5552         0.009366   
    102. D(H  21,C   8,C   6,O   7)    -91.8899         0.009366   
    103. D(H  22,O   9,C   8,H  21)     53.1565         0.021458   
    104. D(H  22,O   9,C   8,C  10)    -65.5118         0.021458   
    105. D(H  22,O   9,C   8,C   6)    171.7154         0.021458   
    106. D(H  24,C  10,C   8,H  21)    179.0163         0.010247   
    107. D(H  24,C  10,C   8,O   9)    -60.6707         0.010247   
    108. D(H  24,C  10,C   8,C   6)     57.3139         0.010247   
    109. D(H  23,C  10,C   8,H  21)    -61.6941         0.010247   
    110. D(H  23,C  10,C   8,O   9)     58.6189         0.010247   
    111. D(H  23,C  10,C   8,C   6)    176.6036         0.010247   
    112. D(O  11,C  10,C   8,H  21)     60.6747         0.010247   
    113. D(O  11,C  10,C   8,O   9)   -179.0123         0.010247   
    114. D(O  11,C  10,C   8,C   6)    -61.0277         0.010247   
    115. D(P  12,O  11,C  10,H  24)    145.1295         0.020605   
    116. D(P  12,O  11,C  10,H  23)     27.0937         0.020605   
    117. D(P  12,O  11,C  10,C   8)    -94.5277         0.020605   
    118. D(O  15,P  12,O  11,C  10)     21.7613         0.014173   
    119. D(O  14,P  12,O  11,C  10)    -84.7830         0.014173   
    120. D(O  13,P  12,O  11,C  10)    153.2733         0.014173   
    121. D(H  25,O  14,P  12,O  15)     96.1452         0.014060   
    122. D(H  25,O  14,P  12,O  13)    -30.9545         0.014060   
    123. D(H  25,O  14,P  12,O  11)   -151.3542         0.014060   
    124. D(H  26,O  15,P  12,O  14)   -169.3301         0.014887   
    125. D(H  26,O  15,P  12,O  13)    -44.7750         0.014887   
    126. D(H  26,O  15,P  12,O  11)     83.4183         0.014887   
    -----------------------------------------------------------------

Number of atoms                         .... 27
Number of degrees of freedom            .... 126

         *************************************************************
         *                GEOMETRY OPTIMIZATION CYCLE   1            *
         *************************************************************
---------------------------------
CARTESIAN COORDINATES (ANGSTROEM)
---------------------------------
  O     0.678244   -0.270903    1.794488
  C     1.586543    0.354974    1.271205
  O     1.739448    1.635386    1.356839
  C     2.662263   -0.405158    0.481957
  O     3.806520   -0.438544    0.840656
  C     2.152725   -1.185687   -0.718093
  C     0.928112   -0.548349   -1.396275
  O     1.121943    0.837822   -1.295833
  C    -0.404305   -1.091247   -0.804992
  O    -0.731893   -2.218425   -1.585923
  C    -1.555833   -0.066129   -0.844507
  O    -1.246451    1.088250   -0.086616
  P    -1.653819    1.341981    1.427850
  O    -0.713521    2.252784    2.093897
  O    -3.124411    1.929406    1.287125
  O    -1.943965   -0.048716    2.123363
  H     0.910823    2.047120    1.745880
  H     2.985594   -1.245711   -1.419974
  H     1.920780   -2.202869   -0.394175
  H     0.908126   -0.854753   -2.456004
  H     0.330921    1.325001   -1.545898
  H    -0.255178   -1.382566    0.240083
  H    -1.480271   -2.680040   -1.191140
  H    -2.470214   -0.536873   -0.470245
  H    -1.729067    0.267858   -1.873809
  H    -3.322622    2.515533    2.014739
  H    -1.100393   -0.419947    2.409804

----------------------------
CARTESIAN COORDINATES (A.U.)
----------------------------
  NO LB    ZA    FRAG    MASS        X           Y           Z
   0 O   8.0000    0    15.999    1.281695   -0.511932    3.391091
   1 C   6.0000    0    12.011    2.998132    0.670804    2.402229
   2 O   8.0000    0    15.999    3.287080    3.090432    2.564054
   3 C   6.0000    0    12.011    5.030948   -0.765638    0.910767
   4 O   8.0000    0    15.999    7.193280   -0.828728    1.588610
   5 C   6.0000    0    12.011    4.068061   -2.240624   -1.356999
   6 C   6.0000    0    12.011    1.753878   -1.036229   -2.638577
   7 O   8.0000    0    15.999    2.120165    1.583254   -2.448769
   8 C   6.0000    0    12.011   -0.764026   -2.062158   -1.521214
   9 O   8.0000    0    15.999   -1.383077   -4.192216   -2.996960
  10 C   6.0000    0    12.011   -2.940098   -0.124966   -1.595887
  11 O   8.0000    0    15.999   -2.355451    2.056494   -0.163681
  12 P  15.0000    0    30.974   -3.125265    2.535977    2.698245
  13 O   8.0000    0    15.999   -1.348359    4.257145    3.956892
  14 O   8.0000    0    15.999   -5.904281    3.646049    2.432314
  15 O   8.0000    0    15.999   -3.673561   -0.092060    4.012575
  16 H   1.0000    0     1.008    1.721206    3.868496    3.299235
  17 H   1.0000    0     1.008    5.641955   -2.354053   -2.683362
  18 H   1.0000    0     1.008    3.629748   -4.162819   -0.744883
  19 H   1.0000    0     1.008    1.716109   -1.615249   -4.641175
  20 H   1.0000    0     1.008    0.625350    2.503889   -2.921324
  21 H   1.0000    0     1.008   -0.482217   -2.612671    0.453691
  22 H   1.0000    0     1.008   -2.797307   -5.064542   -2.250928
  23 H   1.0000    0     1.008   -4.668028   -1.014543   -0.888634
  24 H   1.0000    0     1.008   -3.267463    0.506178   -3.540986
  25 H   1.0000    0     1.008   -6.278846    4.753668    3.807305
  26 H   1.0000    0     1.008   -2.079441   -0.793585    4.553870

      -----------------------------------------------------------      
     |                   =====================                   |     
     |                           x T B                           |     
     |                   =====================                   |     
     |                         S. Grimme                         |     
     |          Mulliken Center for Theoretical Chemistry        |     
     |                    University of Bonn                     |     
      -----------------------------------------------------------      

   * xtb version 6.5.1 (579679a) compiled by 'ehlert@majestix' on 2022-07-11

   xtb is free software: you can redistribute it and/or modify it under
   the terms of the GNU Lesser General Public License as published by
   the Free Software Foundation, either version 3 of the License, or
   (at your option) any later version.
   
   xtb is distributed in the hope that it will be useful,
   but WITHOUT ANY WARRANTY; without even the implied warranty of
   MERCHANTABILITY or FITNESS FOR A PARTICULAR PURPOSE.  See the
   GNU Lesser General Public License for more details.
   
   Cite this work as:
   * C. Bannwarth, E. Caldeweyher, S. Ehlert, A. Hansen, P. Pracht,
     J. Seibert, S. Spicher, S. Grimme, WIREs Comput. Mol. Sci., 2020, 11,
     e01493. DOI: 10.1002/wcms.1493
   
   for GFN2-xTB:
   * C. Bannwarth, S. Ehlert and S. Grimme., J. Chem. Theory Comput., 2019,
     15, 1652-1671. DOI: 10.1021/acs.jctc.8b01176
   for GFN1-xTB:
   * S. Grimme, C. Bannwarth, P. Shushkov, J. Chem. Theory Comput., 2017,
     13, 1989-2009. DOI: 10.1021/acs.jctc.7b00118
   for GFN0-xTB:
   * P. Pracht, E. Caldeweyher, S. Ehlert, S. Grimme, ChemRxiv, 2019, preprint.
     DOI: 10.26434/chemrxiv.8326202.v1
   for GFN-FF:
   * S. Spicher and S. Grimme, Angew. Chem. Int. Ed., 2020, 59, 15665-15673.
     DOI: 10.1002/anie.202004239
   
   for ALPB and GBSA implicit solvation:
   * S. Ehlert, M. Stahn, S. Spicher, S. Grimme, J. Chem. Theory Comput.,
     2021, 17, 4250-4261. DOI: 10.1021/acs.jctc.1c00471
   
   for DFT-D4:
   * E. Caldeweyher, C. Bannwarth and S. Grimme, J. Chem. Phys., 2017,
     147, 034112. DOI: 10.1063/1.4993215
   * E. Caldeweyher, S. Ehlert, A. Hansen, H. Neugebauer, S. Spicher,
     C. Bannwarth and S. Grimme, J. Chem. Phys., 2019, 150, 154122.
     DOI: 10.1063/1.5090222
   * E. Caldeweyher, J.-M. Mewes, S. Ehlert and S. Grimme, Phys. Chem. Chem. Phys.
     2020, 22, 8499-8512. DOI: 10.1039/D0CP00502A
   
   for sTDA-xTB:
   * S. Grimme and C. Bannwarth, J. Chem. Phys., 2016, 145, 054103.
     DOI: 10.1063/1.4959605
   
   in the mass-spec context:
   * V. Asgeirsson, C. Bauer and S. Grimme, Chem. Sci., 2017, 8, 4879.
     DOI: 10.1039/c7sc00601b
   * J. Koopman and S. Grimme, ACS Omega 2019, 4, 12, 15120-15133.
     DOI: 10.1021/acsomega.9b02011
   
   for metadynamics refer to:
   * S. Grimme, J. Chem. Theory Comput., 2019, 155, 2847-2862
     DOI: 10.1021/acs.jctc.9b00143
   
   for SPH calculations refer to:
   * S. Spicher and S. Grimme, J. Chem. Theory Comput., 2021, 17, 1701-1714
     DOI: 10.1021/acs.jctc.0c01306
   
   with help from (in alphabetical order)
   P. Atkinson, C. Bannwarth, F. Bohle, G. Brandenburg, E. Caldeweyher
   M. Checinski, S. Dohm, S. Ehlert, S. Ehrlich, I. Gerasimov, C. Hölzer
   A. Katbashev, J. Koopman, C. Lavigne, S. Lehtola, F. März, M. Müller,
   F. Musil, H. Neugebauer, J. Pisarek, C. Plett, P. Pracht, F. Pultar,
   J. Seibert, P. Shushkov, S. Spicher, M. Stahn, M. Steiner, T. Strunk,
   J. Stückrath, T. Rose, and J. Unsleber
   
 * started run on 2023/12/07 at 10:17:35.750     

           -------------------------------------------------
          |                Calculation Setup                |
           -------------------------------------------------

          program call               : otool_xtb /tmp/C04442_XTB.xyz --grad -c 0 -u 0 -P 1 --namespace /tmp/C04442 --input /tmp/C04442_XTB.input.tmp --acc 1.000000
          calculation namespace      : /tmp/C04442
          coordinate file            : /tmp/C04442_XTB.xyz
          omp threads                :                     1

   ID    Z sym.   atoms
    1    8 O      1, 3, 5, 8, 10, 12, 14-16
    2    6 C      2, 4, 6, 7, 9, 11
    3   15 P      13
    4    1 H      17-27

           -------------------------------------------------
          |                 G F N 2 - x T B                 |
           -------------------------------------------------

        Reference                      10.1021/acs.jctc.8b01176
      * Hamiltonian:
        H0-scaling (s, p, d)           1.850000    2.230000    2.230000
        zeta-weighting                 0.500000
      * Dispersion:
        s8                             2.700000
        a1                             0.520000
        a2                             5.000000
        s9                             5.000000
      * Repulsion:
        kExp                           1.500000    1.000000
        rExp                           1.000000
      * Coulomb:
        alpha                          2.000000
        third order                    shell-resolved
        anisotropic                    true
        a3                             3.000000
        a5                             4.000000
        cn-shift                       1.200000
        cn-exp                         4.000000
        max-rad                        5.000000

q/qsh data taken from xtbrestart
CAMM data taken from xtbrestart

          ...................................................
          :                      SETUP                      :
          :.................................................:
          :  # basis functions                  81          :
          :  # atomic orbitals                  80          :
          :  # shells                           44          :
          :  # electrons                        94          :
          :  max. iterations                   250          :
          :  Hamiltonian                  GFN2-xTB          :
          :  restarted?                       true          :
          :  GBSA solvation                  false          :
          :  PC potential                    false          :
          :  electronic temp.          300.0000000     K    :
          :  accuracy                    1.0000000          :
          :  -> integral cutoff          0.2500000E+02      :
          :  -> integral neglect         0.1000000E-07      :
          :  -> SCF convergence          0.1000000E-05 Eh   :
          :  -> wf. convergence          0.1000000E-03 e    :
          :  Broyden damping             0.4000000          :
          ...................................................

 iter      E             dE          RMSdq      gap      omega  full diag
   1    -58.1316866 -0.581317E+02  0.912E-05    3.13       0.0  T
   2    -58.1316866 -0.242295E-10  0.564E-05    3.13     341.2  T
   3    -58.1316866 -0.402878E-11  0.270E-05    3.13     711.9  T

   *** convergence criteria satisfied after 3 iterations ***

         #    Occupation            Energy/Eh            Energy/eV
      -------------------------------------------------------------
         1        2.0000           -0.7574551             -20.6114
       ...           ...                  ...                  ...
        41        2.0000           -0.4693933             -12.7728
        42        2.0000           -0.4650845             -12.6556
        43        2.0000           -0.4619773             -12.5710
        44        2.0000           -0.4595805             -12.5058
        45        2.0000           -0.4374071             -11.9025
        46        2.0000           -0.4262331             -11.5984
        47        2.0000           -0.4028426             -10.9619 (HOMO)
        48                         -0.2878755              -7.8335 (LUMO)
        49                         -0.2356305              -6.4118
        50                         -0.0921130              -2.5065
        51                         -0.0395083              -1.0751
        52                         -0.0276073              -0.7512
       ...                                ...                  ...
        80                          1.2816613              34.8758
      -------------------------------------------------------------
                  HL-Gap            0.1149671 Eh            3.1284 eV
             Fermi-level           -0.3453591 Eh           -9.3977 eV

 SCC (total)                   0 d,  0 h,  0 min,  0.026 sec
 SCC setup                      ...        0 min,  0.000 sec (  0.720%)
 Dispersion                     ...        0 min,  0.000 sec (  0.806%)
 classical contributions        ...        0 min,  0.000 sec (  0.172%)
 integral evaluation            ...        0 min,  0.005 sec ( 21.058%)
 iterations                     ...        0 min,  0.004 sec ( 16.922%)
 molecular gradient             ...        0 min,  0.015 sec ( 59.659%)
 printout                       ...        0 min,  0.000 sec (  0.603%)

         :::::::::::::::::::::::::::::::::::::::::::::::::::::
         ::                     SUMMARY                     ::
         :::::::::::::::::::::::::::::::::::::::::::::::::::::
         :: total energy             -57.719461680647 Eh    ::
         :: gradient norm              0.004481503558 Eh/a0 ::
         :: HOMO-LUMO gap              3.128413837208 eV    ::
         ::.................................................::
         :: SCC energy               -58.131686552252 Eh    ::
         :: -> isotropic ES            0.220935888455 Eh    ::
         :: -> anisotropic ES         -0.014330308788 Eh    ::
         :: -> anisotropic XC         -0.005217298441 Eh    ::
         :: -> dispersion             -0.029007457039 Eh    ::
         :: repulsion energy           0.411827429664 Eh    ::
         :: add. restraining           0.000000000000 Eh    ::
         :: total charge              -0.000000000000 e     ::
         :::::::::::::::::::::::::::::::::::::::::::::::::::::


Property printout bound to 'properties.out'

           -------------------------------------------------
          | TOTAL ENERGY              -57.719461680647 Eh   |
          | GRADIENT NORM               0.004481503558 Eh/α |
          | HOMO-LUMO GAP               3.128413837208 eV   |
           -------------------------------------------------

------------------------------------------------------------------------
 * finished run on 2023/12/07 at 10:17:35.787     
------------------------------------------------------------------------
 total:
 * wall-time:     0 d,  0 h,  0 min,  0.037 sec
 *  cpu-time:     0 d,  0 h,  0 min,  0.036 sec
 * ratio c/w:     0.962 speedup
 SCF:
 * wall-time:     0 d,  0 h,  0 min,  0.026 sec
 *  cpu-time:     0 d,  0 h,  0 min,  0.024 sec
 * ratio c/w:     0.934 speedup


-------------------------   --------------------
FINAL SINGLE POINT ENERGY       -57.719461680650
-------------------------   --------------------

------------------------------------------------------------------------------
                         ORCA GEOMETRY RELAXATION STEP
------------------------------------------------------------------------------

Reading the OPT-File                    .... done
Getting information on internals        .... done
Copying old internal coords+grads       .... done
Making the new internal coordinates     .... (new redundants).... done
Validating the new internal coordinates .... (new redundants).... done
Calculating the B-matrix                .... done
Calculating the G,G- and P matrices     .... done
Transforming gradient to internals      .... done
Projecting the internal gradient        .... done
Number of atoms                         ....  27
Number of internal coordinates          .... 126
Current Energy                          ....   -57.719461681 Eh
Current gradient norm                   ....     0.004481504 Eh/bohr
Maximum allowed component of the step   ....  0.300
Current trust radius                    ....  0.300
Evaluating the initial hessian          ....  (Almloef) done
Projecting the Hessian                  .... done
Forming the augmented Hessian           .... done
Diagonalizing the augmented Hessian     .... done
Last element of RFO vector              ....  0.963850860
Lowest eigenvalues of augmented Hessian:
 -0.001352168  0.000484246  0.009361164  0.009851168  0.010372741
Length of the computed step             ....  0.276435234
The final length of the internal step   ....  0.276435234
Converting the step to cartesian space:
 Initial RMS(Int)=    0.0246268080
Transforming coordinates:
 Iter   0:  RMS(Cart)=    0.1687130366 RMS(Int)=    0.0246130185
 Iter   1:  RMS(Cart)=    0.0075968041 RMS(Int)=    0.0047322164
 Iter   2:  RMS(Cart)=    0.0007544762 RMS(Int)=    0.0002994794
 Iter   3:  RMS(Cart)=    0.0000606758 RMS(Int)=    0.0000331407
 Iter   4:  RMS(Cart)=    0.0000082043 RMS(Int)=    0.0000040331
 Iter   5:  RMS(Cart)=    0.0000006475 RMS(Int)=    0.0000003071
 Iter   6:  RMS(Cart)=    0.0000000870 RMS(Int)=    0.0000000481
done
Storing new coordinates                 .... done

                                .--------------------.
          ----------------------|Geometry convergence|-------------------------
          Item                value                   Tolerance       Converged
          ---------------------------------------------------------------------
          RMS gradient        0.0009228252            0.0001000000      NO
          MAX gradient        0.0052476217            0.0003000000      NO
          RMS step            0.0246268080            0.0020000000      NO
          MAX step            0.0807850160            0.0040000000      NO
          ........................................................
          Max(Bonds)      0.0158      Max(Angles)    0.90
          Max(Dihed)        4.63      Max(Improp)    0.00
          ---------------------------------------------------------------------

The optimization has not yet converged - more geometry cycles are needed


    ---------------------------------------------------------------------------
                         Redundant Internal Coordinates
                            (Angstroem and degrees)

        Definition                    Value    dE/dq     Step     New-Value
    ----------------------------------------------------------------------------
     1. B(C   1,O   0)                1.2209 -0.000229  0.0001    1.2210   
     2. B(O   2,C   1)                1.2923  0.000464 -0.0001    1.2922   
     3. B(C   3,C   1)                1.5355  0.001012 -0.0015    1.5340   
     4. B(O   4,C   3)                1.1996  0.000284 -0.0001    1.1995   
     5. B(C   5,C   3)                1.5195  0.000899 -0.0010    1.5185   
     6. B(C   6,C   5)                1.5381 -0.000831  0.0012    1.5394   
     7. B(O   7,C   6)                1.4033  0.000521 -0.0005    1.4027   
     8. B(C   8,C   6)                1.5555 -0.000123  0.0006    1.5561   
     9. B(O   9,C   8)                1.4099  0.000011 -0.0000    1.4098   
    10. B(C  10,C   8)                1.5422 -0.001183  0.0017    1.5439   
    11. B(O  11,C  10)                1.4152 -0.000215  0.0000    1.4152   
    12. B(P  12,O  11)                1.5887 -0.001213  0.0007    1.5894   
    13. B(O  13,P  12)                1.4688  0.000009 -0.0000    1.4688   
    14. B(O  14,P  12)                1.5898  0.000683 -0.0004    1.5894   
    15. B(O  15,P  12)                1.5818 -0.000842  0.0006    1.5824   
    16. B(H  16,O   2)                1.0037 -0.000065 -0.0000    1.0037   
    17. B(H  17,C   5)                1.0908 -0.000120  0.0002    1.0910   
    18. B(H  18,C   5)                1.0924  0.000347 -0.0005    1.0919   
    19. B(H  19,C   6)                1.1033 -0.000023  0.0000    1.1034   
    20. B(H  20,O   7)                0.9621 -0.000343  0.0004    0.9624   
    21. B(H  21,C   8)                1.0951 -0.000626  0.0009    1.0961   
    22. B(H  22,O   9)                0.9639  0.000008 -0.0000    0.9638   
    23. B(H  23,C  10)                1.0944  0.000086 -0.0001    1.0943   
    24. B(H  24,C  10)                1.0959  0.000007 -0.0000    1.0959   
    25. B(H  25,O  14)                0.9551 -0.000174  0.0002    0.9553   
    26. B(H  26,H  16)                3.2515 -0.000270 -0.0158    3.2357   
    27. B(H  26,O  15)                0.9651 -0.000415  0.0004    0.9655   
    28. A(O   0,C   1,C   3)          119.19  0.000148    0.03    119.22   
    29. A(O   0,C   1,O   2)          124.58 -0.000871    0.14    124.72   
    30. A(O   2,C   1,C   3)          116.21  0.000730   -0.19    116.02   
    31. A(C   1,O   2,H  16)          109.54  0.000061    0.08    109.61   
    32. A(C   1,C   3,O   4)          121.89  0.000297   -0.10    121.79   
    33. A(O   4,C   3,C   5)          122.80 -0.000371   -0.01    122.79   
    34. A(C   1,C   3,C   5)          115.17  0.000100    0.08    115.25   
    35. A(C   3,C   5,H  17)          106.28  0.000398   -0.02    106.26   
    36. A(C   6,C   5,H  17)          110.30  0.001316   -0.17    110.14   
    37. A(C   3,C   5,C   6)          113.73 -0.003397    0.68    114.40   
    38. A(C   3,C   5,H  18)          108.38  0.001627   -0.25    108.13   
    39. A(H  17,C   5,H  18)          107.56 -0.000584   -0.05    107.50   
    40. A(C   6,C   5,H  18)          110.34  0.000748   -0.22    110.12   
    41. A(C   8,C   6,H  19)          104.63 -0.000371   -0.20    104.43   
    42. A(C   5,C   6,H  19)          108.84  0.001322   -0.54    108.29   
    43. A(O   7,C   6,H  19)          110.22  0.000081   -0.13    110.09   
    44. A(O   7,C   6,C   8)          115.84  0.000718    0.15    115.99   
    45. A(C   5,C   6,C   8)          111.70 -0.000572    0.25    111.95   
    46. A(C   5,C   6,O   7)          105.53 -0.001053    0.41    105.94   
    47. A(C   6,O   7,H  20)          111.59  0.000710   -0.11    111.48   
    48. A(O   9,C   8,C  10)          110.11  0.001243   -0.48    109.63   
    49. A(C   6,C   8,C  10)          113.44 -0.001679    0.41    113.86   
    50. A(C   6,C   8,O   9)          105.52  0.000791   -0.50    105.02   
    51. A(O   9,C   8,H  21)          110.34 -0.000285   -0.09    110.25   
    52. A(C  10,C   8,H  21)          107.63 -0.000485    0.42    108.05   
    53. A(C   6,C   8,H  21)          109.81  0.000448    0.21    110.02   
    54. A(C   8,O   9,H  22)          109.66  0.000306   -0.05    109.61   
    55. A(C   8,C  10,O  11)          111.42 -0.005248    0.90    112.32   
    56. A(H  23,C  10,H  24)          108.68 -0.000455   -0.19    108.48   
    57. A(C   8,C  10,H  24)          110.16  0.001565   -0.26    109.90   
    58. A(O  11,C  10,H  23)          110.51  0.001837   -0.30    110.21   
    59. A(C   8,C  10,H  23)          109.22  0.001081   -0.16    109.05   
    60. A(O  11,C  10,H  24)          106.80  0.001324   -0.01    106.79   
    61. A(C  10,O  11,P  12)          125.79  0.001462   -0.30    125.49   
    62. A(O  14,P  12,O  15)          101.19 -0.000626    0.02    101.21   
    63. A(O  13,P  12,O  15)          117.60 -0.000050    0.07    117.67   
    64. A(O  11,P  12,O  15)          109.01 -0.000246    0.07    109.09   
    65. A(O  13,P  12,O  14)          113.78  0.000680   -0.13    113.65   
    66. A(O  11,P  12,O  14)          102.23  0.000759   -0.14    102.09   
    67. A(O  11,P  12,O  13)          111.54 -0.000411    0.07    111.61   
    68. A(P  12,O  14,H  25)          110.57 -0.000039    0.01    110.57   
    69. A(P  12,O  15,H  26)          107.96  0.000394    0.02    107.98   
    70. D(H  16,O   2,C   1,O   0)    -11.71 -0.000650    0.51    -11.19   
    71. D(H  16,O   2,C   1,C   3)    170.09 -0.000946    1.26    171.35   
    72. D(O   4,C   3,C   1,O   0)   -114.68  0.000279   -2.75   -117.43   
    73. D(C   5,C   3,C   1,O   0)     61.11  0.000643   -3.24     57.87   
    74. D(O   4,C   3,C   1,O   2)     63.63  0.000538   -3.45     60.17   
    75. D(C   5,C   3,C   1,O   2)   -120.58  0.000902   -3.95   -124.53   
    76. D(H  18,C   5,C   3,C   1)    -91.71 -0.000228   -0.11    -91.82   
    77. D(C   6,C   5,C   3,C   1)     31.38 -0.000379   -0.11     31.27   
    78. D(H  17,C   5,C   3,O   4)    -31.32 -0.000137   -0.42    -31.74   
    79. D(H  17,C   5,C   3,C   1)    152.93 -0.000536    0.08    153.01   
    80. D(C   6,C   5,C   3,O   4)   -152.87  0.000020   -0.61   -153.48   
    81. D(H  18,C   5,C   3,O   4)     84.04  0.000171   -0.61     83.43   
    82. D(O   7,C   6,C   5,H  17)    -83.78  0.000063    0.17    -83.61   
    83. D(O   7,C   6,C   5,C   3)     35.51 -0.000769    0.48     35.99   
    84. D(O   7,C   6,C   5,H  18)    157.53 -0.000505    0.48    158.01   
    85. D(H  19,C   6,C   5,H  18)    -84.19 -0.000316    0.28    -83.91   
    86. D(H  19,C   6,C   5,H  17)     34.50  0.000253   -0.03     34.47   
    87. D(H  19,C   6,C   5,C   3)    153.79 -0.000579    0.28    154.07   
    88. D(C   8,C   6,C   5,H  18)     30.84 -0.000297   -0.15     30.68   
    89. D(C   8,C   6,C   5,H  17)    149.53  0.000272   -0.46    149.07   
    90. D(C   8,C   6,C   5,C   3)    -91.18 -0.000561   -0.15    -91.33   
    91. D(H  20,O   7,C   6,H  19)     73.27 -0.000160   -0.30     72.98   
    92. D(H  20,O   7,C   6,C   8)    -45.25 -0.000228   -0.04    -45.29   
    93. D(H  20,O   7,C   6,C   5)   -169.38  0.000851   -0.77   -170.15   
    94. D(C  10,C   8,C   6,H  19)    -92.97 -0.001322    3.99    -88.98   
    95. D(C  10,C   8,C   6,O   7)     28.59 -0.001056    3.77     32.36   
    96. D(C  10,C   8,C   6,C   5)    149.45 -0.002388    4.63    154.08   
    97. D(O   9,C   8,C   6,H  19)     27.65 -0.000232    3.31     30.95   
    98. D(O   9,C   8,C   6,O   7)    149.20  0.000034    3.09    152.29   
    99. D(H  21,C   8,C   6,C   5)     28.97 -0.000956    3.66     32.64   
   100. D(O   9,C   8,C   6,C   5)    -89.94 -0.001297    3.95    -85.99   
   101. D(H  21,C   8,C   6,H  19)    146.56  0.000109    3.02    149.58   
   102. D(H  21,C   8,C   6,O   7)    -91.89  0.000375    2.80    -89.09   
   103. D(H  22,O   9,C   8,H  21)     53.16 -0.000308    0.15     53.31   
   104. D(H  22,O   9,C   8,C  10)    -65.51 -0.000307   -0.01    -65.52   
   105. D(H  22,O   9,C   8,C   6)    171.72  0.000528    0.07    171.79   
   106. D(H  24,C  10,C   8,H  21)    179.02 -0.000920   -0.20    178.81   
   107. D(H  24,C  10,C   8,O   9)    -60.67 -0.000838   -0.34    -61.01   
   108. D(H  24,C  10,C   8,C   6)     57.31 -0.000067   -1.03     56.28   
   109. D(H  23,C  10,C   8,H  21)    -61.69  0.000137   -0.70    -62.40   
   110. D(H  23,C  10,C   8,O   9)     58.62  0.000219   -0.84     57.78   
   111. D(H  23,C  10,C   8,C   6)    176.60  0.000990   -1.53    175.07   
   112. D(O  11,C  10,C   8,H  21)     60.67 -0.000275   -0.59     60.08   
   113. D(O  11,C  10,C   8,O   9)   -179.01 -0.000194   -0.73   -179.74   
   114. D(O  11,C  10,C   8,C   6)    -61.03  0.000577   -1.42    -62.45   
   115. D(P  12,O  11,C  10,H  24)    145.13  0.001115   -2.55    142.58   
   116. D(P  12,O  11,C  10,H  23)     27.09 -0.000108   -2.15     24.94   
   117. D(P  12,O  11,C  10,C   8)    -94.53  0.000820   -2.35    -96.88   
   118. D(O  15,P  12,O  11,C  10)     21.76 -0.001397    4.07     25.84   
   119. D(O  14,P  12,O  11,C  10)    -84.78 -0.000945    4.08    -80.70   
   120. D(O  13,P  12,O  11,C  10)    153.27 -0.002001    4.29    157.56   
   121. D(H  25,O  14,P  12,O  15)     96.15  0.000003    0.14     96.28   
   122. D(H  25,O  14,P  12,O  13)    -30.95  0.000109    0.11    -30.85   
   123. D(H  25,O  14,P  12,O  11)   -151.35 -0.000226    0.18   -151.17   
   124. D(H  26,O  15,P  12,O  14)   -169.33 -0.000077    0.36   -168.97   
   125. D(H  26,O  15,P  12,O  13)    -44.77  0.000279    0.26    -44.52   
   126. D(H  26,O  15,P  12,O  11)     83.42 -0.000573    0.48     83.90   
    ----------------------------------------------------------------------------

         *************************************************************
         *                GEOMETRY OPTIMIZATION CYCLE   2            *
         *************************************************************
---------------------------------
CARTESIAN COORDINATES (ANGSTROEM)
---------------------------------
  O     0.796638   -0.342202    1.778141
  C     1.727282    0.276255    1.285952
  O     1.957534    1.533160    1.476719
  C     2.747869   -0.472423    0.419225
  O     3.904418   -0.549245    0.727892
  C     2.167408   -1.194626   -0.783662
  C     0.923609   -0.520226   -1.390063
  O     1.135936    0.861007   -1.268437
  C    -0.394397   -1.063992   -0.767163
  O    -0.709358   -2.212583   -1.521618
  C    -1.570652   -0.065658   -0.826846
  O    -1.311776    1.115484   -0.091218
  P    -1.792297    1.402667    1.396308
  O    -0.958730    2.422298    2.046578
  O    -3.299871    1.856157    1.177660
  O    -1.990691    0.026163    2.150669
  H     1.167532    1.954396    1.930657
  H     2.966001   -1.245333   -1.525263
  H     1.932010   -2.217945   -0.484215
  H     0.861777   -0.801796   -2.455089
  H     0.341670    1.360015   -1.483841
  H    -0.229899   -1.333126    0.282522
  H    -1.447010   -2.677326   -1.110669
  H    -2.473973   -0.555498   -0.450611
  H    -1.747852    0.240551   -1.864070
  H    -3.572489    2.458673    1.867037
  H    -1.130591   -0.254649    2.487809

----------------------------
CARTESIAN COORDINATES (A.U.)
----------------------------
  NO LB    ZA    FRAG    MASS        X           Y           Z
   0 O   8.0000    0    15.999    1.505428   -0.646668    3.360200
   1 C   6.0000    0    12.011    3.264090    0.522047    2.430097
   2 O   8.0000    0    15.999    3.699203    2.897252    2.790594
   3 C   6.0000    0    12.011    5.192720   -0.892749    0.792220
   4 O   8.0000    0    15.999    7.378282   -1.037923    1.375516
   5 C   6.0000    0    12.011    4.095807   -2.257516   -1.480906
   6 C   6.0000    0    12.011    1.745368   -0.983084   -2.626838
   7 O   8.0000    0    15.999    2.146608    1.627068   -2.396999
   8 C   6.0000    0    12.011   -0.745303   -2.010653   -1.449729
   9 O   8.0000    0    15.999   -1.340493   -4.181176   -2.875442
  10 C   6.0000    0    12.011   -2.968102   -0.124076   -1.562513
  11 O   8.0000    0    15.999   -2.478897    2.107959   -0.172377
  12 P  15.0000    0    30.974   -3.386950    2.650657    2.638640
  13 O   8.0000    0    15.999   -1.811736    4.577479    3.867473
  14 O   8.0000    0    15.999   -6.235853    3.507628    2.225454
  15 O   8.0000    0    15.999   -3.761860    0.049441    4.064175
  16 H   1.0000    0     1.008    2.206316    3.693273    3.648412
  17 H   1.0000    0     1.008    5.604930   -2.353337   -2.882329
  18 H   1.0000    0     1.008    3.650970   -4.191308   -0.915035
  19 H   1.0000    0     1.008    1.628523   -1.515175   -4.639446
  20 H   1.0000    0     1.008    0.645663    2.570056   -2.804053
  21 H   1.0000    0     1.008   -0.434447   -2.519244    0.533889
  22 H   1.0000    0     1.008   -2.734453   -5.059414   -2.098860
  23 H   1.0000    0     1.008   -4.675131   -1.049739   -0.851531
  24 H   1.0000    0     1.008   -3.302962    0.454575   -3.522582
  25 H   1.0000    0     1.008   -6.751026    4.646218    3.528188
  26 H   1.0000    0     1.008   -2.136508   -0.481216    4.701278

      -----------------------------------------------------------      
     |                   =====================                   |     
     |                           x T B                           |     
     |                   =====================                   |     
     |                         S. Grimme                         |     
     |          Mulliken Center for Theoretical Chemistry        |     
     |                    University of Bonn                     |     
      -----------------------------------------------------------      

   * xtb version 6.5.1 (579679a) compiled by 'ehlert@majestix' on 2022-07-11

   xtb is free software: you can redistribute it and/or modify it under
   the terms of the GNU Lesser General Public License as published by
   the Free Software Foundation, either version 3 of the License, or
   (at your option) any later version.
   
   xtb is distributed in the hope that it will be useful,
   but WITHOUT ANY WARRANTY; without even the implied warranty of
   MERCHANTABILITY or FITNESS FOR A PARTICULAR PURPOSE.  See the
   GNU Lesser General Public License for more details.
   
   Cite this work as:
   * C. Bannwarth, E. Caldeweyher, S. Ehlert, A. Hansen, P. Pracht,
     J. Seibert, S. Spicher, S. Grimme, WIREs Comput. Mol. Sci., 2020, 11,
     e01493. DOI: 10.1002/wcms.1493
   
   for GFN2-xTB:
   * C. Bannwarth, S. Ehlert and S. Grimme., J. Chem. Theory Comput., 2019,
     15, 1652-1671. DOI: 10.1021/acs.jctc.8b01176
   for GFN1-xTB:
   * S. Grimme, C. Bannwarth, P. Shushkov, J. Chem. Theory Comput., 2017,
     13, 1989-2009. DOI: 10.1021/acs.jctc.7b00118
   for GFN0-xTB:
   * P. Pracht, E. Caldeweyher, S. Ehlert, S. Grimme, ChemRxiv, 2019, preprint.
     DOI: 10.26434/chemrxiv.8326202.v1
   for GFN-FF:
   * S. Spicher and S. Grimme, Angew. Chem. Int. Ed., 2020, 59, 15665-15673.
     DOI: 10.1002/anie.202004239
   
   for ALPB and GBSA implicit solvation:
   * S. Ehlert, M. Stahn, S. Spicher, S. Grimme, J. Chem. Theory Comput.,
     2021, 17, 4250-4261. DOI: 10.1021/acs.jctc.1c00471
   
   for DFT-D4:
   * E. Caldeweyher, C. Bannwarth and S. Grimme, J. Chem. Phys., 2017,
     147, 034112. DOI: 10.1063/1.4993215
   * E. Caldeweyher, S. Ehlert, A. Hansen, H. Neugebauer, S. Spicher,
     C. Bannwarth and S. Grimme, J. Chem. Phys., 2019, 150, 154122.
     DOI: 10.1063/1.5090222
   * E. Caldeweyher, J.-M. Mewes, S. Ehlert and S. Grimme, Phys. Chem. Chem. Phys.
     2020, 22, 8499-8512. DOI: 10.1039/D0CP00502A
   
   for sTDA-xTB:
   * S. Grimme and C. Bannwarth, J. Chem. Phys., 2016, 145, 054103.
     DOI: 10.1063/1.4959605
   
   in the mass-spec context:
   * V. Asgeirsson, C. Bauer and S. Grimme, Chem. Sci., 2017, 8, 4879.
     DOI: 10.1039/c7sc00601b
   * J. Koopman and S. Grimme, ACS Omega 2019, 4, 12, 15120-15133.
     DOI: 10.1021/acsomega.9b02011
   
   for metadynamics refer to:
   * S. Grimme, J. Chem. Theory Comput., 2019, 155, 2847-2862
     DOI: 10.1021/acs.jctc.9b00143
   
   for SPH calculations refer to:
   * S. Spicher and S. Grimme, J. Chem. Theory Comput., 2021, 17, 1701-1714
     DOI: 10.1021/acs.jctc.0c01306
   
   with help from (in alphabetical order)
   P. Atkinson, C. Bannwarth, F. Bohle, G. Brandenburg, E. Caldeweyher
   M. Checinski, S. Dohm, S. Ehlert, S. Ehrlich, I. Gerasimov, C. Hölzer
   A. Katbashev, J. Koopman, C. Lavigne, S. Lehtola, F. März, M. Müller,
   F. Musil, H. Neugebauer, J. Pisarek, C. Plett, P. Pracht, F. Pultar,
   J. Seibert, P. Shushkov, S. Spicher, M. Stahn, M. Steiner, T. Strunk,
   J. Stückrath, T. Rose, and J. Unsleber
   
 * started run on 2023/12/07 at 10:17:35.872     

           -------------------------------------------------
          |                Calculation Setup                |
           -------------------------------------------------

          program call               : otool_xtb /tmp/C04442_XTB.xyz --grad -c 0 -u 0 -P 1 --namespace /tmp/C04442 --input /tmp/C04442_XTB.input.tmp --acc 1.000000
          calculation namespace      : /tmp/C04442
          coordinate file            : /tmp/C04442_XTB.xyz
          omp threads                :                     1

   ID    Z sym.   atoms
    1    8 O      1, 3, 5, 8, 10, 12, 14-16
    2    6 C      2, 4, 6, 7, 9, 11
    3   15 P      13
    4    1 H      17-27

           -------------------------------------------------
          |                 G F N 2 - x T B                 |
           -------------------------------------------------

        Reference                      10.1021/acs.jctc.8b01176
      * Hamiltonian:
        H0-scaling (s, p, d)           1.850000    2.230000    2.230000
        zeta-weighting                 0.500000
      * Dispersion:
        s8                             2.700000
        a1                             0.520000
        a2                             5.000000
        s9                             5.000000
      * Repulsion:
        kExp                           1.500000    1.000000
        rExp                           1.000000
      * Coulomb:
        alpha                          2.000000
        third order                    shell-resolved
        anisotropic                    true
        a3                             3.000000
        a5                             4.000000
        cn-shift                       1.200000
        cn-exp                         4.000000
        max-rad                        5.000000

q/qsh data taken from xtbrestart
CAMM data taken from xtbrestart

          ...................................................
          :                      SETUP                      :
          :.................................................:
          :  # basis functions                  81          :
          :  # atomic orbitals                  80          :
          :  # shells                           44          :
          :  # electrons                        94          :
          :  max. iterations                   250          :
          :  Hamiltonian                  GFN2-xTB          :
          :  restarted?                       true          :
          :  GBSA solvation                  false          :
          :  PC potential                    false          :
          :  electronic temp.          300.0000000     K    :
          :  accuracy                    1.0000000          :
          :  -> integral cutoff          0.2500000E+02      :
          :  -> integral neglect         0.1000000E-07      :
          :  -> SCF convergence          0.1000000E-05 Eh   :
          :  -> wf. convergence          0.1000000E-03 e    :
          :  Broyden damping             0.4000000          :
          ...................................................

 iter      E             dE          RMSdq      gap      omega  full diag
   1    -58.1258389 -0.581258E+02  0.520E-01    3.11       0.0  T
   2    -58.1260141 -0.175203E-03  0.275E-01    3.10       1.0  T
   3    -58.1260344 -0.202270E-04  0.758E-02    3.10       1.0  T
   4    -58.1260389 -0.452644E-05  0.173E-02    3.10       1.1  T
   5    -58.1260396 -0.683840E-06  0.622E-03    3.10       3.1  T
   6    -58.1260397 -0.111128E-06  0.297E-03    3.10       6.5  T
   7    -58.1260397 -0.361368E-07  0.140E-03    3.10      13.7  T
   8    -58.1260397 -0.110957E-07  0.469E-04    3.10      41.0  T
   9    -58.1260397 -0.108982E-08  0.179E-04    3.10     107.6  T

   *** convergence criteria satisfied after 9 iterations ***

         #    Occupation            Energy/Eh            Energy/eV
      -------------------------------------------------------------
         1        2.0000           -0.7627702             -20.7560
       ...           ...                  ...                  ...
        41        2.0000           -0.4733770             -12.8812
        42        2.0000           -0.4647157             -12.6456
        43        2.0000           -0.4554848             -12.3944
        44        2.0000           -0.4530237             -12.3274
        45        2.0000           -0.4364943             -11.8776
        46        2.0000           -0.4264323             -11.6038
        47        2.0000           -0.4088744             -11.1260 (HOMO)
        48                         -0.2948180              -8.0224 (LUMO)
        49                         -0.2391144              -6.5066
        50                         -0.0894605              -2.4343
        51                         -0.0418231              -1.1381
        52                         -0.0264939              -0.7209
       ...                                ...                  ...
        80                          1.2500244              34.0149
      -------------------------------------------------------------
                  HL-Gap            0.1140563 Eh            3.1036 eV
             Fermi-level           -0.3518462 Eh           -9.5742 eV

 SCC (total)                   0 d,  0 h,  0 min,  0.032 sec
 SCC setup                      ...        0 min,  0.000 sec (  0.576%)
 Dispersion                     ...        0 min,  0.000 sec (  0.619%)
 classical contributions        ...        0 min,  0.000 sec (  0.140%)
 integral evaluation            ...        0 min,  0.005 sec ( 16.845%)
 iterations                     ...        0 min,  0.011 sec ( 33.656%)
 molecular gradient             ...        0 min,  0.015 sec ( 47.647%)
 printout                       ...        0 min,  0.000 sec (  0.458%)

         :::::::::::::::::::::::::::::::::::::::::::::::::::::
         ::                     SUMMARY                     ::
         :::::::::::::::::::::::::::::::::::::::::::::::::::::
         :: total energy             -57.714042255785 Eh    ::
         :: gradient norm              0.032491845527 Eh/a0 ::
         :: HOMO-LUMO gap              3.103631199353 eV    ::
         ::.................................................::
         :: SCC energy               -58.126039742647 Eh    ::
         :: -> isotropic ES            0.221746383607 Eh    ::
         :: -> anisotropic ES         -0.012242504879 Eh    ::
         :: -> anisotropic XC         -0.004429907124 Eh    ::
         :: -> dispersion             -0.028201378012 Eh    ::
         :: repulsion energy           0.411599118147 Eh    ::
         :: add. restraining           0.000000000000 Eh    ::
         :: total charge               0.000000000000 e     ::
         :::::::::::::::::::::::::::::::::::::::::::::::::::::


Property printout bound to 'properties.out'

           -------------------------------------------------
          | TOTAL ENERGY              -57.714042255785 Eh   |
          | GRADIENT NORM               0.032491845527 Eh/α |
          | HOMO-LUMO GAP               3.103631199353 eV   |
           -------------------------------------------------

------------------------------------------------------------------------
 * finished run on 2023/12/07 at 10:17:35.917     
------------------------------------------------------------------------
 total:
 * wall-time:     0 d,  0 h,  0 min,  0.044 sec
 *  cpu-time:     0 d,  0 h,  0 min,  0.044 sec
 * ratio c/w:     0.990 speedup
 SCF:
 * wall-time:     0 d,  0 h,  0 min,  0.032 sec
 *  cpu-time:     0 d,  0 h,  0 min,  0.032 sec
 * ratio c/w:     0.986 speedup


-------------------------   --------------------
FINAL SINGLE POINT ENERGY       -57.714042255780
-------------------------   --------------------

------------------------------------------------------------------------------
                         ORCA GEOMETRY RELAXATION STEP
------------------------------------------------------------------------------

Reading the OPT-File                    .... done
Getting information on internals        .... done
Copying old internal coords+grads       .... done
Making the new internal coordinates     .... (new redundants).... done
Validating the new internal coordinates .... (new redundants).... done
Calculating the B-matrix                .... done
Calculating the G,G- and P matrices     .... done
Transforming gradient to internals      .... done
Projecting the internal gradient        .... done
Number of atoms                         ....  27
Number of internal coordinates          .... 126
Current Energy                          ....   -57.714042256 Eh
Current gradient norm                   ....     0.032491846 Eh/bohr
Maximum allowed component of the step   ....  0.300
Current trust radius                    ....  0.300
Updating the Hessian (BFGS)             .... done
Forming the augmented Hessian           .... done
Diagonalizing the augmented Hessian     .... done
Last element of RFO vector              ....  0.986287663
Lowest eigenvalues of augmented Hessian:
 -0.006891007  0.000481880  0.008509438  0.009990801  0.010430886
Length of the computed step             ....  0.167329771
The final length of the internal step   ....  0.167329771
Converting the step to cartesian space:
 Initial RMS(Int)=    0.0149069208
Transforming coordinates:
 Iter   0:  RMS(Cart)=    0.1329786325 RMS(Int)=    0.0149255333
 Iter   1:  RMS(Cart)=    0.0061280066 RMS(Int)=    0.0036852134
 Iter   2:  RMS(Cart)=    0.0002064614 RMS(Int)=    0.0000747397
 Iter   3:  RMS(Cart)=    0.0000190073 RMS(Int)=    0.0000103755
 Iter   4:  RMS(Cart)=    0.0000011377 RMS(Int)=    0.0000004860
 Iter   5:  RMS(Cart)=    0.0000001078 RMS(Int)=    0.0000000597
 Iter   6:  RMS(Cart)=    0.0000000070 RMS(Int)=    0.0000000033
done
Storing new coordinates                 .... done

                                .--------------------.
          ----------------------|Geometry convergence|-------------------------
          Item                value                   Tolerance       Converged
          ---------------------------------------------------------------------
          Energy change       0.0054194249            0.0000050000      NO
          RMS gradient        0.0072202096            0.0001000000      NO
          MAX gradient        0.0419407649            0.0003000000      NO
          RMS step            0.0149069208            0.0020000000      NO
          MAX step            0.0523169428            0.0040000000      NO
          ........................................................
          Max(Bonds)      0.0099      Max(Angles)    0.96
          Max(Dihed)        3.00      Max(Improp)    0.00
          ---------------------------------------------------------------------

The optimization has not yet converged - more geometry cycles are needed


    ---------------------------------------------------------------------------
                         Redundant Internal Coordinates
                            (Angstroem and degrees)

        Definition                    Value    dE/dq     Step     New-Value
    ----------------------------------------------------------------------------
     1. B(C   1,O   0)                1.2210  0.002836 -0.0002    1.2208   
     2. B(O   2,C   1)                1.2920 -0.010279  0.0011    1.2930   
     3. B(C   3,C   1)                1.5341 -0.008073  0.0016    1.5356   
     4. B(O   4,C   3)                1.1995 -0.000029 -0.0000    1.1995   
     5. B(C   5,C   3)                1.5184  0.000658 -0.0006    1.5178   
     6. B(C   6,C   5)                1.5393  0.008680 -0.0018    1.5376   
     7. B(O   7,C   6)                1.4027 -0.000213 -0.0001    1.4026   
     8. B(C   8,C   6)                1.5559  0.006881 -0.0019    1.5540   
     9. B(O   9,C   8)                1.4098 -0.000869  0.0001    1.4100   
    10. B(C  10,C   8)                1.5440  0.010953 -0.0022    1.5417   
    11. B(O  11,C  10)                1.4154  0.005080 -0.0008    1.4146   
    12. B(P  12,O  11)                1.5894  0.003336 -0.0001    1.5892   
    13. B(O  13,P  12)                1.4688  0.005018 -0.0003    1.4685   
    14. B(O  14,P  12)                1.5894 -0.001491  0.0000    1.5895   
    15. B(O  15,P  12)                1.5821 -0.005450  0.0007    1.5828   
    16. B(H  16,O   2)                1.0038  0.011923 -0.0023    1.0015   
    17. B(H  17,C   5)                1.0910  0.000038  0.0000    1.0910   
    18. B(H  18,C   5)                1.0919 -0.000090 -0.0001    1.0918   
    19. B(H  19,C   6)                1.1034 -0.000235  0.0001    1.1034   
    20. B(H  20,O   7)                0.9624 -0.000636  0.0002    0.9626   
    21. B(H  21,C   8)                1.0961  0.000390  0.0002    1.0962   
    22. B(H  22,O   9)                0.9638 -0.000027  0.0000    0.9638   
    23. B(H  23,C  10)                1.0943 -0.000068 -0.0000    1.0943   
    24. B(H  24,C  10)                1.0959 -0.000189  0.0000    1.0959   
    25. B(H  25,O  14)                0.9553  0.000479 -0.0000    0.9553   
    26. B(H  26,H  16)                3.2360  0.002368 -0.0099    3.2261   
    27. B(H  26,O  15)                0.9656  0.001617 -0.0001    0.9654   
    28. A(O   0,C   1,C   3)          119.18 -0.009611    0.20    119.39   
    29. A(O   0,C   1,O   2)          124.69  0.003221   -0.04    124.65   
    30. A(O   2,C   1,C   3)          116.08  0.006253   -0.14    115.94   
    31. A(C   1,O   2,H  16)          109.56 -0.009921    0.22    109.78   
    32. A(C   1,C   3,O   4)          121.83 -0.002146    0.10    121.93   
    33. A(O   4,C   3,C   5)          122.82 -0.003526    0.15    122.97   
    34. A(C   1,C   3,C   5)          115.18  0.005275   -0.12    115.05   
    35. A(C   3,C   5,H  17)          106.31 -0.007094    0.26    106.56   
    36. A(C   6,C   5,H  17)          110.12 -0.010265    0.30    110.42   
    37. A(C   3,C   5,C   6)          114.37  0.027969   -0.72    113.65   
    38. A(C   3,C   5,H  18)          108.11 -0.011001    0.08    108.19   
    39. A(H  17,C   5,H  18)          107.50  0.003307    0.16    107.66   
    40. A(C   6,C   5,H  18)          110.15 -0.004133   -0.02    110.13   
    41. A(C   8,C   6,H  19)          104.46 -0.001775    0.33    104.80   
    42. A(C   5,C   6,H  19)          108.28 -0.009171    0.49    108.78   
    43. A(O   7,C   6,H  19)          110.09  0.001038    0.11    110.20   
    44. A(O   7,C   6,C   8)          115.95 -0.003595   -0.18    115.77   
    45. A(C   5,C   6,C   8)          111.94  0.010407   -0.44    111.50   
    46. A(C   5,C   6,O   7)          105.96  0.002315   -0.26    105.70   
    47. A(C   6,O   7,H  20)          111.48  0.001273   -0.07    111.42   
    48. A(O   9,C   8,C  10)          109.63 -0.009701    0.46    110.09   
    49. A(C   6,C   8,C  10)          113.82  0.009095   -0.24    113.58   
    50. A(C   6,C   8,O   9)          105.05 -0.002799    0.28    105.33   
    51. A(O   9,C   8,H  21)          110.24  0.001407    0.07    110.32   
    52. A(C  10,C   8,H  21)          108.07  0.003729   -0.34    107.73   
    53. A(C   6,C   8,H  21)          110.00 -0.002084   -0.22    109.79   
    54. A(C   8,O   9,H  22)          109.61  0.000293   -0.02    109.59   
    55. A(C   8,C  10,O  11)          112.34  0.041941   -0.96    111.38   
    56. A(H  23,C  10,H  24)          108.48  0.003631    0.16    108.64   
    57. A(C   8,C  10,H  24)          109.90 -0.013866    0.39    110.30   
    58. A(O  11,C  10,H  23)          110.23 -0.014326    0.17    110.41   
    59. A(C   8,C  10,H  23)          109.04 -0.005627   -0.01    109.03   
    60. A(O  11,C  10,H  24)          106.76 -0.012947    0.27    107.03   
    61. A(C  10,O  11,P  12)          125.59  0.009992   -0.22    125.37   
    62. A(O  14,P  12,O  15)          101.24 -0.000911    0.10    101.34   
    63. A(O  13,P  12,O  15)          117.65  0.001962   -0.09    117.56   
    64. A(O  11,P  12,O  15)          109.08  0.006299   -0.19    108.89   
    65. A(O  13,P  12,O  14)          113.65 -0.006261    0.19    113.84   
    66. A(O  11,P  12,O  14)          102.10 -0.004065    0.11    102.20   
    67. A(O  11,P  12,O  13)          111.61  0.001978   -0.08    111.53   
    68. A(P  12,O  14,H  25)          110.57  0.001250   -0.03    110.54   
    69. A(P  12,O  15,H  26)          107.93 -0.005529    0.09    108.02   
    70. D(H  16,O   2,C   1,O   0)    -11.19 -0.001251    0.66    -10.53   
    71. D(H  16,O   2,C   1,C   3)    171.35  0.002637   -0.40    170.95   
    72. D(O   4,C   3,C   1,O   0)   -117.42  0.003309   -1.50   -118.91   
    73. D(C   5,C   3,C   1,O   0)     57.85 -0.002098    0.47     58.32   
    74. D(O   4,C   3,C   1,O   2)     60.19 -0.000036   -0.50     59.69   
    75. D(C   5,C   3,C   1,O   2)   -124.53 -0.005443    1.46   -123.08   
    76. D(H  18,C   5,C   3,C   1)    -91.78  0.002636   -1.88    -93.66   
    77. D(C   6,C   5,C   3,C   1)     31.31  0.008171   -2.34     28.97   
    78. D(H  17,C   5,C   3,O   4)    -31.73  0.002213   -0.25    -31.98   
    79. D(H  17,C   5,C   3,C   1)    153.05  0.007602   -2.23    150.82   
    80. D(C   6,C   5,C   3,O   4)   -153.47  0.002782   -0.36   -153.82   
    81. D(H  18,C   5,C   3,O   4)     83.44 -0.002753    0.10     83.54   
    82. D(O   7,C   6,C   5,H  17)    -83.60  0.001148   -0.19    -83.79   
    83. D(O   7,C   6,C   5,C   3)     36.02  0.003494   -0.14     35.89   
    84. D(O   7,C   6,C   5,H  18)    158.01  0.005936   -0.56    157.45   
    85. D(H  19,C   6,C   5,H  18)    -83.91  0.003777   -0.32    -84.23   
    86. D(H  19,C   6,C   5,H  17)     34.48 -0.001010    0.05     34.53   
    87. D(H  19,C   6,C   5,C   3)    154.10  0.001336    0.10    154.21   
    88. D(C   8,C   6,C   5,H  18)     30.72  0.001882    0.13     30.85   
    89. D(C   8,C   6,C   5,H  17)    149.11 -0.002906    0.50    149.61   
    90. D(C   8,C   6,C   5,C   3)    -91.27 -0.000559    0.56    -90.72   
    91. D(H  20,O   7,C   6,H  19)     72.98  0.001456   -0.05     72.93   
    92. D(H  20,O   7,C   6,C   8)    -45.30  0.005424   -0.45    -45.75   
    93. D(H  20,O   7,C   6,C   5)   -170.14 -0.007545    0.44   -169.70   
    94. D(C  10,C   8,C   6,H  19)    -88.97  0.009845   -2.44    -91.41   
    95. D(C  10,C   8,C   6,O   7)     32.36  0.007714   -2.16     30.20   
    96. D(C  10,C   8,C   6,C   5)    154.08  0.016613   -3.00    151.08   
    97. D(O   9,C   8,C   6,H  19)     30.96  0.001185   -1.82     29.14   
    98. D(O   9,C   8,C   6,O   7)    152.30 -0.000945   -1.54    150.76   
    99. D(H  21,C   8,C   6,C   5)     32.64  0.006987   -2.24     30.40   
   100. D(O   9,C   8,C   6,C   5)    -85.99  0.007954   -2.38    -88.37   
   101. D(H  21,C   8,C   6,H  19)    149.59  0.000218   -1.68    147.91   
   102. D(H  21,C   8,C   6,O   7)    -89.07 -0.001912   -1.41    -90.48   
   103. D(H  22,O   9,C   8,H  21)     53.32  0.000913    0.02     53.33   
   104. D(H  22,O   9,C   8,C  10)    -65.53  0.001465    0.09    -65.43   
   105. D(H  22,O   9,C   8,C   6)    171.79 -0.002415   -0.04    171.75   
   106. D(H  24,C  10,C   8,H  21)    178.82  0.005021    0.29    179.11   
   107. D(H  24,C  10,C   8,O   9)    -61.00  0.003300    0.45    -60.55   
   108. D(H  24,C  10,C   8,C   6)     56.31 -0.001113    0.97     57.28   
   109. D(H  23,C  10,C   8,H  21)    -62.39 -0.002167    0.73    -61.67   
   110. D(H  23,C  10,C   8,O   9)     57.79 -0.003888    0.88     58.67   
   111. D(H  23,C  10,C   8,C   6)    175.10 -0.008301    1.40    176.50   
   112. D(O  11,C  10,C   8,H  21)     60.11  0.003767    0.31     60.42   
   113. D(O  11,C  10,C   8,O   9)   -179.71  0.002046    0.46   -179.25   
   114. D(O  11,C  10,C   8,C   6)    -62.40 -0.002368    0.98    -61.41   
   115. D(P  12,O  11,C  10,H  24)    142.61 -0.010402    2.62    145.23   
   116. D(P  12,O  11,C  10,H  23)     24.97  0.000331    2.17     27.14   
   117. D(P  12,O  11,C  10,C   8)    -96.85 -0.011140    2.72    -94.14   
   118. D(O  15,P  12,O  11,C  10)     25.89  0.000943   -0.00     25.89   
   119. D(O  14,P  12,O  11,C  10)    -80.68  0.001622   -0.09    -80.77   
   120. D(O  13,P  12,O  11,C  10)    157.58  0.010489   -0.34    157.24   
   121. D(H  25,O  14,P  12,O  15)     96.28 -0.002475    0.16     96.44   
   122. D(H  25,O  14,P  12,O  13)    -30.84 -0.000628    0.09    -30.75   
   123. D(H  25,O  14,P  12,O  11)   -151.17  0.002724    0.02   -151.15   
   124. D(H  26,O  15,P  12,O  14)   -168.96  0.002526   -0.35   -169.32   
   125. D(H  26,O  15,P  12,O  13)    -44.51 -0.005006   -0.09    -44.59   
   126. D(H  26,O  15,P  12,O  11)     83.89  0.005416   -0.45     83.44   
    ----------------------------------------------------------------------------

         *************************************************************
         *                GEOMETRY OPTIMIZATION CYCLE   3            *
         *************************************************************
---------------------------------
CARTESIAN COORDINATES (ANGSTROEM)
---------------------------------
  O     0.624774   -0.223776    1.716643
  C     1.599300    0.352055    1.259433
  O     1.837279    1.616017    1.394121
  C     2.658573   -0.451713    0.491390
  O     3.797536   -0.515578    0.862042
  C     2.142078   -1.203291   -0.722039
  C     0.925351   -0.539612   -1.387848
  O     1.135236    0.842212   -1.270024
  C    -0.409316   -1.073768   -0.797204
  O    -0.731369   -2.207717   -1.570841
  C    -1.561554   -0.050817   -0.851628
  O    -1.259484    1.106675   -0.096852
  P    -1.678858    1.351524    1.416440
  O    -0.804576    2.336942    2.065264
  O    -3.188607    1.827602    1.273754
  O    -1.861044   -0.049233    2.130952
  H     1.031659    2.074697    1.772754
  H     2.973789   -1.266190   -1.425376
  H     1.892384   -2.220084   -0.412556
  H     0.899217   -0.831768   -2.451569
  H     0.349044    1.339530   -1.517499
  H    -0.264065   -1.357318    0.251698
  H    -1.482297   -2.665416   -1.176356
  H    -2.475438   -0.522236   -0.477433
  H    -1.732548    0.274406   -1.884143
  H    -3.425610    2.410595    1.992416
  H    -0.991353   -0.353542    2.418862

----------------------------
CARTESIAN COORDINATES (A.U.)
----------------------------
  NO LB    ZA    FRAG    MASS        X           Y           Z
   0 O   8.0000    0    15.999    1.180651   -0.422875    3.243984
   1 C   6.0000    0    12.011    3.022240    0.665287    2.379984
   2 O   8.0000    0    15.999    3.471954    3.053829    2.634506
   3 C   6.0000    0    12.011    5.023975   -0.853613    0.928593
   4 O   8.0000    0    15.999    7.176304   -0.974302    1.629023
   5 C   6.0000    0    12.011    4.047940   -2.273890   -1.364456
   6 C   6.0000    0    12.011    1.748659   -1.019719   -2.622652
   7 O   8.0000    0    15.999    2.145285    1.591551   -2.399998
   8 C   6.0000    0    12.011   -0.773495   -2.029127   -1.506497
   9 O   8.0000    0    15.999   -1.382088   -4.171980   -2.968460
  10 C   6.0000    0    12.011   -2.950909   -0.096030   -1.609344
  11 O   8.0000    0    15.999   -2.380080    2.091312   -0.183024
  12 P  15.0000    0    30.974   -3.172582    2.554010    2.676683
  13 O   8.0000    0    15.999   -1.520428    4.416180    3.902783
  14 O   8.0000    0    15.999   -6.025594    3.453668    2.407046
  15 O   8.0000    0    15.999   -3.516864   -0.093037    4.026916
  16 H   1.0000    0     1.008    1.949552    3.920609    3.350020
  17 H   1.0000    0     1.008    5.619647   -2.392752   -2.693569
  18 H   1.0000    0     1.008    3.576088   -4.195351   -0.779618
  19 H   1.0000    0     1.008    1.699273   -1.571814   -4.632794
  20 H   1.0000    0     1.008    0.659597    2.531345   -2.867657
[...]
     68       0.000727  -0.001749  -0.000207   0.000182   0.000796  -0.000155
     69       0.226400  -0.447371   0.655894  -0.000754   0.004206  -0.001841
     70       0.098155  -0.212183   0.334836  -0.000482   0.001998  -0.000207
     71      -0.074512   0.181491  -0.314001   0.000011  -0.001924  -0.000565
     72      -0.117018   0.094000   0.059368   0.001977  -0.000168   0.000131
     73       0.220731  -0.155128  -0.188604  -0.003856   0.000020   0.000063
     74      -0.629862   0.446229   0.513730   0.010080   0.000021   0.001171
     75       0.000424  -0.000799   0.000398  -0.000045  -0.000021   0.001299
     76       0.000279   0.000362  -0.000648   0.000129   0.000021  -0.007625
     77       0.000585   0.000125  -0.001120   0.000093   0.000067  -0.010965
     78      -0.000550  -0.003359  -0.000454   0.000162  -0.000137   0.849647
     79       0.000093   0.001378  -0.000486  -0.000208   0.000079  -0.411900
     80      -0.000829  -0.000266  -0.000414   0.000381  -0.000305   0.322128
                 78         79         80    
      0       0.000039  -0.000060   0.000098
      1       0.000027  -0.000045   0.000006
      2       0.000017   0.000031  -0.000018
      3      -0.000050  -0.000009  -0.000125
      4      -0.000062   0.000175  -0.000064
      5       0.000024  -0.000166   0.000054
      6       0.000008  -0.000095   0.000262
      7       0.000036   0.000039  -0.000074
      8      -0.000002   0.000122  -0.000109
      9      -0.000044  -0.000118  -0.000078
     10       0.000022   0.000031   0.000010
     11       0.000006   0.000089  -0.000018
     12       0.000014   0.000103   0.000041
     13      -0.000007   0.000018   0.000000
     14      -0.000008  -0.000001   0.000014
     15      -0.000024   0.000030   0.000007
     16       0.000085   0.000449   0.000003
     17       0.000031   0.000156  -0.000005
     18      -0.000206  -0.000934  -0.000011
     19      -0.000178   0.001162  -0.000010
     20       0.000193  -0.000437   0.000015
     21      -0.000900  -0.048675   0.000138
     22       0.000484   0.030328  -0.000076
     23      -0.000439  -0.022479   0.000055
     24      -0.001244   0.000133  -0.000020
     25      -0.000920   0.000039   0.000051
     26       0.000452   0.000001  -0.000004
     27      -0.048904   0.000790   0.000001
     28      -0.028329   0.000469  -0.000017
     29       0.025180  -0.000418  -0.000011
     30       0.000234   0.000107   0.000163
     31      -0.000015  -0.000184   0.000148
     32      -0.000046   0.000145   0.000181
     33      -0.000003  -0.000194   0.000119
     34       0.000109   0.000116  -0.000177
     35       0.000097   0.000003  -0.000418
     36       0.000026   0.000080  -0.000138
     37      -0.000013  -0.000027   0.000133
     38      -0.000054   0.000078   0.000295
     39       0.000002  -0.000084   0.000354
     40       0.000018   0.000006   0.000110
     41       0.000022  -0.000002   0.000157
     42      -0.000024  -0.000081  -0.016006
     43       0.000008   0.000134   0.039342
     44       0.000015   0.000103   0.045946
     45      -0.000024  -0.000282   0.000836
     46      -0.000018   0.000137  -0.000618
     47       0.000032  -0.000093   0.000359
     48      -0.000011   0.002353  -0.005072
     49      -0.000071  -0.001380   0.001553
     50      -0.000052  -0.001721   0.001764
     51       0.001070   0.002278   0.000008
     52      -0.000024  -0.000236  -0.000029
     53      -0.001069  -0.002186  -0.000082
     54      -0.000479  -0.001398  -0.000055
     55      -0.001665  -0.000841  -0.000161
     56       0.000723   0.000355   0.000038
     57       0.000928   0.000175  -0.000056
     58      -0.001608  -0.000662  -0.000019
     59      -0.006531  -0.001554  -0.000085
     60       0.013598   0.785786  -0.002190
     61      -0.008058  -0.497610   0.001414
     62       0.006412   0.361616  -0.000983
     63       0.000661  -0.000499   0.000081
     64       0.000929  -0.000116  -0.000265
     65      -0.003637   0.000147   0.000333
     66       0.789445  -0.013521  -0.000062
     67       0.464101  -0.008110  -0.000010
     68      -0.396476   0.006772   0.000033
     69       0.000701  -0.000672  -0.000814
     70      -0.001275  -0.000404  -0.000871
     71      -0.000788   0.000135   0.000182
     72      -0.000701  -0.001552  -0.000310
     73      -0.000001  -0.001266   0.000339
     74       0.000123  -0.001849  -0.000743
     75       0.000064   0.000708   0.248820
     76      -0.000045  -0.001854  -0.624271
     77      -0.000066  -0.002048  -0.737736
     78       0.000090   0.004309  -0.010651
     79       0.000088  -0.001834   0.005596
     80      -0.000288   0.001273  -0.004140


-----------
IR SPECTRUM
-----------

 Mode   freq       eps      Int      T**2         TX        TY        TZ
       cm**-1   L/(mol*cm) km/mol    a.u.
----------------------------------------------------------------------------
  6:     37.61   0.000204    1.03  0.001691  (-0.035225 -0.020550  0.005320)
  7:     55.84   0.000323    1.63  0.001803  (-0.027778  0.031367  0.006916)
  8:     76.46   0.000908    4.59  0.003706  ( 0.002507 -0.053774  0.028419)
  9:     91.28   0.000179    0.91  0.000613  (-0.020336  0.013171  0.005100)
 10:    102.93   0.000828    4.18  0.002510  (-0.039771 -0.028804 -0.009942)
 11:    131.93   0.005436   27.47  0.012859  (-0.041349 -0.081857  0.066697)
 12:    144.43   0.000117    0.59  0.000254  (-0.007494  0.013640  0.003409)
 13:    160.55   0.004250   21.48  0.008261  (-0.072611 -0.054266  0.006623)
 14:    167.67   0.009417   47.59  0.017526  ( 0.049652  0.094904 -0.077803)
 15:    182.38   0.004002   20.22  0.006848  (-0.050437 -0.059231  0.028202)
 16:    191.68   0.001852    9.36  0.003016  ( 0.034172  0.010858 -0.041596)
 17:    227.33   0.009015   45.56  0.012375  ( 0.003292 -0.042397  0.102796)
 18:    249.41   0.003405   17.21  0.004261  ( 0.045360 -0.005474 -0.046618)
 19:    268.51   0.028672  144.90  0.033323  (-0.111874  0.009466  0.143936)
 20:    269.71   0.001426    7.21  0.001650  ( 0.030728 -0.026355 -0.003358)
 21:    308.62   0.006287   31.77  0.006357  ( 0.029111  0.049603 -0.055222)
 22:    326.68   0.022847  115.46  0.021824  ( 0.080539 -0.072716  0.100251)
 23:    328.06   0.007554   38.17  0.007186  (-0.082341  0.001429  0.020087)
 24:    361.05   0.005177   26.16  0.004474  (-0.048471  0.038058 -0.026007)
 25:    374.36   0.003128   15.81  0.002607  ( 0.048803 -0.005188  0.014091)
 26:    381.89   0.001697    8.57  0.001386  ( 0.018889 -0.017722 -0.026751)
 27:    395.08   0.001776    8.97  0.001403  ( 0.022229  0.021860 -0.020756)
 28:    418.31   0.020864  105.44  0.015565  ( 0.065746 -0.090026  0.056015)
 29:    440.22   0.015536   78.51  0.011013  ( 0.071489 -0.076754  0.003401)
 30:    480.27   0.003620   18.29  0.002352  ( 0.022560  0.035939 -0.023485)
 31:    527.36   0.005031   25.43  0.002977  ( 0.024925 -0.036977 -0.031442)
 32:    532.75   0.046012  232.53  0.026952  (-0.057500  0.046717  0.146503)
 33:    567.15   0.007220   36.49  0.003973  ( 0.009102  0.045787  0.042347)
 34:    586.21   0.001794    9.06  0.000955  ( 0.015798  0.017141 -0.020282)
 35:    641.11   0.001985   10.03  0.000966  (-0.021192 -0.007297  0.021537)
 36:    748.60   0.000150    0.76  0.000063  (-0.000902 -0.006803  0.003932)
 37:    760.53   0.011802   59.64  0.004842  (-0.038546  0.019357  0.054608)
 38:    769.42   0.005458   27.58  0.002214  (-0.009234 -0.046130 -0.000622)
 39:    820.12   0.030408  153.67  0.011570  (-0.083129  0.034851  0.058698)
 40:    838.86   0.016366   82.71  0.006088  (-0.078024 -0.000409  0.000669)
 41:    856.44   0.038508  194.60  0.014031  (-0.049070  0.107459 -0.008710)
 42:    901.95   0.060530  305.89  0.020943  (-0.077382  0.053779 -0.109829)
 43:    904.24   0.063674  321.78  0.021975  ( 0.082980 -0.004328  0.122761)
 44:    914.95   0.004102   20.73  0.001399  (-0.031708 -0.012869  0.015104)
 45:    952.92   0.083597  422.46  0.027376  (-0.123726 -0.051408  0.097086)
 46:    986.62   0.000668    3.37  0.000211  (-0.002072  0.011038 -0.009220)
 47:   1021.41   0.001939    9.80  0.000593  ( 0.016015 -0.004816 -0.017687)
 48:   1052.25   0.001190    6.01  0.000353  ( 0.001648  0.004100 -0.018259)
 49:   1070.25   0.037465  189.33  0.010924  ( 0.001672  0.090243  0.052700)
 50:   1099.13   0.040944  206.91  0.011625  (-0.002765  0.056854  0.091568)
 51:   1103.61   0.014459   73.07  0.004089  (-0.035322 -0.053297  0.000625)
 52:   1109.13   0.001876    9.48  0.000528  (-0.004717  0.021143 -0.007660)
 53:   1156.15   0.000480    2.43  0.000130  (-0.007852  0.008040 -0.001797)
 54:   1194.83   0.004175   21.10  0.001090  ( 0.004611  0.032586 -0.002713)
 55:   1200.88   0.001653    8.35  0.000430  ( 0.018824 -0.003812  0.007793)
 56:   1223.70   0.046708  236.04  0.011911  (-0.089852 -0.055578 -0.027368)
 57:   1232.75   0.070596  356.76  0.017871  (-0.069475 -0.109348 -0.032974)
 58:   1245.61   0.011260   56.90  0.002821  ( 0.043834 -0.023537  0.018585)
 59:   1286.28   0.002467   12.46  0.000598  ( 0.001640  0.007770  0.023138)
 60:   1290.75   0.005066   25.60  0.001225  (-0.024105 -0.007632 -0.024196)
 61:   1305.69   0.009236   46.68  0.002207  (-0.026921  0.009291  0.037368)
 62:   1311.82   0.005431   27.45  0.001292  ( 0.014118 -0.023743 -0.022999)
 63:   1331.70   0.008747   44.20  0.002050  (-0.021779 -0.027304 -0.028805)
 64:   1341.49   0.026271  132.76  0.006111  (-0.018426  0.072770  0.021824)
 65:   1360.29   0.011955   60.42  0.002743  ( 0.043591  0.020762  0.020284)
 66:   1414.05   0.005685   28.73  0.001255  (-0.012140  0.033070  0.003680)
 67:   1465.63   0.003100   15.67  0.000660  ( 0.020164 -0.012299  0.010109)
 68:   1710.29   0.098488  497.72  0.017970  (-0.084948 -0.098534  0.032332)
 69:   1786.09   0.054875  277.31  0.009588  (-0.090781 -0.000893 -0.036684)
 70:   2843.51   0.009411   47.56  0.001033  ( 0.011783 -0.020279 -0.021972)
 71:   2855.63   0.170467  861.47  0.018629  (-0.113523  0.055520  0.051562)
 72:   2920.19   0.000504    2.55  0.000054  ( 0.002590 -0.004623  0.005075)
 73:   2933.01   0.007953   40.19  0.000846  ( 0.003243  0.007815 -0.027832)
 74:   2937.27   0.011392   57.57  0.001210  (-0.030855 -0.011203 -0.011521)
 75:   2975.23   0.002055   10.39  0.000216  ( 0.007032  0.000965 -0.012851)
 76:   3000.38   0.004396   22.22  0.000457  (-0.018051  0.007197  0.008921)
 77:   3452.45   0.036942  186.69  0.003339  ( 0.053089 -0.020554  0.009914)
 78:   3539.66   0.002154   10.88  0.000190  ( 0.011784  0.004661 -0.005412)
 79:   3565.25   0.007278   36.78  0.000637  ( 0.021644 -0.011958  0.005056)
 80:   3635.55   0.010549   53.31  0.000905  ( 0.013923 -0.017432 -0.020192)

* The epsilon (eps) is given for a Dirac delta lineshape.
** The dipole moment derivative (T) already includes vibrational overlap.

The first frequency considered to be a vibration is 6
The total number of vibrations considered is 75


--------------------------
THERMOCHEMISTRY AT 298.15K
--------------------------

Temperature         ... 298.15 K
Pressure            ... 1.00 atm
Total Mass          ... 258.12 AMU

Throughout the following assumptions are being made:
  (1) The electronic state is orbitally nondegenerate
  (2) There are no thermally accessible electronically excited states
  (3) Hindered rotations indicated by low frequency modes are not
      treated as such but are treated as vibrations and this may
      cause some error
  (4) All equations used are the standard statistical mechanics
      equations for an ideal gas
  (5) All vibrations are strictly harmonic

freq.      37.61  E(vib)   ...       0.54 
freq.      55.84  E(vib)   ...       0.52 
freq.      76.46  E(vib)   ...       0.49 
freq.      91.28  E(vib)   ...       0.47 
freq.     102.93  E(vib)   ...       0.46 
freq.     131.93  E(vib)   ...       0.42 
freq.     144.43  E(vib)   ...       0.41 
freq.     160.55  E(vib)   ...       0.39 
freq.     167.67  E(vib)   ...       0.38 
freq.     182.38  E(vib)   ...       0.37 
freq.     191.68  E(vib)   ...       0.36 
freq.     227.33  E(vib)   ...       0.33 
freq.     249.41  E(vib)   ...       0.31 
freq.     268.51  E(vib)   ...       0.29 
freq.     269.71  E(vib)   ...       0.29 
freq.     308.62  E(vib)   ...       0.26 
freq.     326.68  E(vib)   ...       0.24 
freq.     328.06  E(vib)   ...       0.24 
freq.     361.05  E(vib)   ...       0.22 
freq.     374.36  E(vib)   ...       0.21 
freq.     381.89  E(vib)   ...       0.21 
freq.     395.08  E(vib)   ...       0.20 
freq.     418.31  E(vib)   ...       0.18 
freq.     440.22  E(vib)   ...       0.17 
freq.     480.27  E(vib)   ...       0.15 
freq.     527.36  E(vib)   ...       0.13 
freq.     532.75  E(vib)   ...       0.13 
freq.     567.15  E(vib)   ...       0.11 
freq.     586.21  E(vib)   ...       0.11 
freq.     641.11  E(vib)   ...       0.09 
freq.     748.60  E(vib)   ...       0.06 
freq.     760.53  E(vib)   ...       0.06 
freq.     769.42  E(vib)   ...       0.06 
freq.     820.12  E(vib)   ...       0.05 
freq.     838.86  E(vib)   ...       0.04 
freq.     856.44  E(vib)   ...       0.04 
freq.     901.95  E(vib)   ...       0.03 
freq.     904.24  E(vib)   ...       0.03 
freq.     914.95  E(vib)   ...       0.03 
freq.     952.92  E(vib)   ...       0.03 
freq.     986.62  E(vib)   ...       0.02 
freq.    1021.41  E(vib)   ...       0.02 
freq.    1052.25  E(vib)   ...       0.02 
freq.    1070.25  E(vib)   ...       0.02 
freq.    1099.13  E(vib)   ...       0.02 
freq.    1103.61  E(vib)   ...       0.02 
freq.    1109.13  E(vib)   ...       0.02 
freq.    1156.15  E(vib)   ...       0.01 
freq.    1194.83  E(vib)   ...       0.01 
freq.    1200.88  E(vib)   ...       0.01 
freq.    1223.70  E(vib)   ...       0.01 
freq.    1232.75  E(vib)   ...       0.01 
freq.    1245.61  E(vib)   ...       0.01 
freq.    1286.28  E(vib)   ...       0.01 
freq.    1290.75  E(vib)   ...       0.01 
freq.    1305.69  E(vib)   ...       0.01 
freq.    1311.82  E(vib)   ...       0.01 
freq.    1331.70  E(vib)   ...       0.01 
freq.    1341.49  E(vib)   ...       0.01 
freq.    1360.29  E(vib)   ...       0.01 
freq.    1414.05  E(vib)   ...       0.00 
freq.    1465.63  E(vib)   ...       0.00 
freq.    1710.29  E(vib)   ...       0.00 
freq.    1786.09  E(vib)   ...       0.00 
freq.    2843.51  E(vib)   ...       0.00 
freq.    2855.63  E(vib)   ...       0.00 
freq.    2920.19  E(vib)   ...       0.00 
freq.    2933.01  E(vib)   ...       0.00 
freq.    2937.27  E(vib)   ...       0.00 
freq.    2975.23  E(vib)   ...       0.00 
freq.    3000.38  E(vib)   ...       0.00 
freq.    3452.45  E(vib)   ...       0.00 
freq.    3539.66  E(vib)   ...       0.00 
freq.    3565.25  E(vib)   ...       0.00 
freq.    3635.55  E(vib)   ...       0.00 

------------
INNER ENERGY
------------

The inner energy is: U= E(el) + E(ZPE) + E(vib) + E(rot) + E(trans)
    E(el)   - is the total energy from the electronic structure calculation
              = E(kin-el) + E(nuc-el) + E(el-el) + E(nuc-nuc)
    E(ZPE)  - the the zero temperature vibrational energy from the frequency calculation
    E(vib)  - the the finite temperature correction to E(ZPE) due to population
              of excited vibrational states
    E(rot)  - is the rotational thermal energy
    E(trans)- is the translational thermal energy

Summary of contributions to the inner energy U:
Electronic energy                ...    -57.71966832 Eh
Zero point energy                ...      0.18784281 Eh     117.87 kcal/mol
Thermal vibrational correction   ...      0.01487634 Eh       9.34 kcal/mol
Thermal rotational correction    ...      0.00141627 Eh       0.89 kcal/mol
Thermal translational correction ...      0.00141627 Eh       0.89 kcal/mol
-----------------------------------------------------------------------
Total thermal energy                    -57.51411663 Eh


Summary of corrections to the electronic energy:
(perhaps to be used in another calculation)
Total thermal correction                  0.01770888 Eh      11.11 kcal/mol
Non-thermal (ZPE) correction              0.18784281 Eh     117.87 kcal/mol
-----------------------------------------------------------------------
Total correction                          0.20555169 Eh     128.99 kcal/mol


--------
ENTHALPY
--------

The enthalpy is H = U + kB*T
                kB is Boltzmann's constant
Total free energy                 ...    -57.51411663 Eh 
Thermal Enthalpy correction       ...      0.00094421 Eh       0.59 kcal/mol
-----------------------------------------------------------------------
Total Enthalpy                    ...    -57.51317242 Eh


Note: Only C1 symmetry has been detected, increase convergence thresholds 
      if your molecule has a higher symmetry. Symmetry factor of 1.0 is   
      used for the rotational entropy correction. 
 

Note: Rotational entropy computed according to Herzberg 
Infrared and Raman Spectra, Chapter V,1, Van Nostrand Reinhold, 1945 
Point Group:  C1, Symmetry Number:   1  
Rotational constants in cm-1:     0.024125     0.014150     0.010763 

Vibrational entropy computed according to the QRRHO of S. Grimme
Chem.Eur.J. 2012 18 9955


-------
ENTROPY
-------

The entropy contributions are T*S = T*(S(el)+S(vib)+S(rot)+S(trans))
     S(el)   - electronic entropy
     S(vib)  - vibrational entropy
     S(rot)  - rotational entropy
     S(trans)- translational entropy
The entropies will be listed as multiplied by the temperature to get
units of energy

Electronic entropy                ...      0.00000000 Eh      0.00 kcal/mol
Vibrational entropy               ...      0.02605303 Eh     16.35 kcal/mol
Rotational entropy                ...      0.01541863 Eh      9.68 kcal/mol
Translational entropy             ...      0.02021422 Eh     12.68 kcal/mol
-----------------------------------------------------------------------
Final entropy term                ...      0.06168588 Eh     38.71 kcal/mol

In case the symmetry of your molecule has not been determined correctly
or in case you have a reason to use a different symmetry number we print 
out the resulting rotational entropy values for sn=1,12 :
 --------------------------------------------------------
|  sn= 1 | S(rot)=       0.01541863 Eh      9.68 kcal/mol|
|  sn= 2 | S(rot)=       0.01476417 Eh      9.26 kcal/mol|
|  sn= 3 | S(rot)=       0.01438134 Eh      9.02 kcal/mol|
|  sn= 4 | S(rot)=       0.01410971 Eh      8.85 kcal/mol|
|  sn= 5 | S(rot)=       0.01389903 Eh      8.72 kcal/mol|
|  sn= 6 | S(rot)=       0.01372688 Eh      8.61 kcal/mol|
|  sn= 7 | S(rot)=       0.01358134 Eh      8.52 kcal/mol|
|  sn= 8 | S(rot)=       0.01345526 Eh      8.44 kcal/mol|
|  sn= 9 | S(rot)=       0.01334405 Eh      8.37 kcal/mol|
|  sn=10 | S(rot)=       0.01324457 Eh      8.31 kcal/mol|
|  sn=11 | S(rot)=       0.01315458 Eh      8.25 kcal/mol|
|  sn=12 | S(rot)=       0.01307243 Eh      8.20 kcal/mol|
 --------------------------------------------------------


-------------------
GIBBS FREE ENERGY
-------------------

The Gibbs free energy is G = H - T*S

Total enthalpy                    ...    -57.51317242 Eh 
Total entropy correction          ...     -0.06168588 Eh    -38.71 kcal/mol
-----------------------------------------------------------------------
Final Gibbs free energy         ...    -57.57485830 Eh

For completeness - the Gibbs free energy minus the electronic energy
G-E(el)                           ...      0.14481001 Eh     90.87 kcal/mol



Timings for individual modules:

Sum of individual times         ...      397.277 sec (=   6.621 min)
Geometry relaxation             ...        1.012 sec (=   0.017 min)   0.3 %
Numerical frequency calculation ...      395.253 sec (=   6.588 min)  99.5 %
XTB module                      ...        1.012 sec (=   0.017 min)   0.3 %
                             ****ORCA TERMINATED NORMALLY****
TOTAL RUN TIME: 0 days 0 hours 6 minutes 38 seconds 125 msec
